# vtk DataFile Version 3.0
VTK Output
ASCII
DATASET UNSTRUCTURED_GRID

POINTS 1025 float
-0.5        -0.5           0
0.5        -0.5           0
0.5         0.5           0
-0.5         0.5           0
-0.5         -0.5           10
0.5         -0.5           10
0.5          0.5           10
-0.5          0.5           10
-0.25        -0.5           0
-1.3751e-12        -0.5           0
0.25        -0.5           0
0.5       -0.25           0
0.5 -1.3751e-12           0
0.5        0.25           0
0.25         0.5           0
1.3751e-12         0.5           0
-0.25         0.5           0
-0.5        0.25           0
-0.5  1.3751e-12           0
-0.5       -0.25           0
-0.25         -0.5           10
-1.37512e-12         -0.5           10
0.25         -0.5           10
0.5        -0.25           10
0.5 -1.37512e-12           10
0.5         0.25           10
0.25          0.5           10
1.37512e-12          0.5           10
-0.25          0.5           10
-0.5         0.25           10
-0.5  1.37512e-12           10
-0.5        -0.25           10
-0.5        -0.5        0.25
-0.5        -0.5         0.5
-0.5        -0.5        0.75
-0.5        -0.5           1
-0.5        -0.5        1.25
-0.5        -0.5         1.5
-0.5        -0.5        1.75
-0.5        -0.5           2
-0.5        -0.5        2.25
-0.5        -0.5         2.5
-0.5        -0.5        2.75
-0.5        -0.5           3
-0.5        -0.5        3.25
-0.5        -0.5         3.5
-0.5        -0.5        3.75
-0.5        -0.5           4
-0.5        -0.5        4.25
-0.5        -0.5         4.5
-0.5        -0.5        4.75
-0.5        -0.5           5
-0.5        -0.5        5.25
-0.5        -0.5         5.5
-0.5        -0.5        5.75
-0.5        -0.5           6
-0.5        -0.5        6.25
-0.5        -0.5         6.5
-0.5        -0.5        6.75
-0.5        -0.5           7
-0.5        -0.5        7.25
-0.5        -0.5         7.5
-0.5        -0.5        7.75
-0.5        -0.5           8
-0.5        -0.5        8.25
-0.5        -0.5         8.5
-0.5        -0.5        8.75
-0.5        -0.5           9
-0.5        -0.5        9.25
-0.5        -0.5         9.5
-0.5        -0.5        9.75
0.5        -0.5        0.25
0.5        -0.5         0.5
0.5        -0.5        0.75
0.5        -0.5           1
0.5        -0.5        1.25
0.5        -0.5         1.5
0.5        -0.5        1.75
0.5        -0.5           2
0.5        -0.5        2.25
0.5        -0.5         2.5
0.5        -0.5        2.75
0.5        -0.5           3
0.5        -0.5        3.25
0.5        -0.5         3.5
0.5        -0.5        3.75
0.5        -0.5           4
0.5        -0.5        4.25
0.5        -0.5         4.5
0.5        -0.5        4.75
0.5        -0.5           5
0.5        -0.5        5.25
0.5        -0.5         5.5
0.5        -0.5        5.75
0.5        -0.5           6
0.5        -0.5        6.25
0.5        -0.5         6.5
0.5        -0.5        6.75
0.5        -0.5           7
0.5        -0.5        7.25
0.5        -0.5         7.5
0.5        -0.5        7.75
0.5        -0.5           8
0.5        -0.5        8.25
0.5        -0.5         8.5
0.5        -0.5        8.75
0.5        -0.5           9
0.5        -0.5        9.25
0.5        -0.5         9.5
0.5        -0.5        9.75
0.5         0.5        0.25
0.5         0.5         0.5
0.5         0.5        0.75
0.5         0.5           1
0.5         0.5        1.25
0.5         0.5         1.5
0.5         0.5        1.75
0.5         0.5           2
0.5         0.5        2.25
0.5         0.5         2.5
0.5         0.5        2.75
0.5         0.5           3
0.5         0.5        3.25
0.5         0.5         3.5
0.5         0.5        3.75
0.5         0.5           4
0.5         0.5        4.25
0.5         0.5         4.5
0.5         0.5        4.75
0.5         0.5           5
0.5         0.5        5.25
0.5         0.5         5.5
0.5         0.5        5.75
0.5         0.5           6
0.5         0.5        6.25
0.5         0.5         6.5
0.5         0.5        6.75
0.5         0.5           7
0.5         0.5        7.25
0.5         0.5         7.5
0.5         0.5        7.75
0.5         0.5           8
0.5         0.5        8.25
0.5         0.5         8.5
0.5         0.5        8.75
0.5         0.5           9
0.5         0.5        9.25
0.5         0.5         9.5
0.5         0.5        9.75
-0.5         0.5        0.25
-0.5         0.5         0.5
-0.5         0.5        0.75
-0.5         0.5           1
-0.5         0.5        1.25
-0.5         0.5         1.5
-0.5         0.5        1.75
-0.5         0.5           2
-0.5         0.5        2.25
-0.5         0.5         2.5
-0.5         0.5        2.75
-0.5         0.5           3
-0.5         0.5        3.25
-0.5         0.5         3.5
-0.5         0.5        3.75
-0.5         0.5           4
-0.5         0.5        4.25
-0.5         0.5         4.5
-0.5         0.5        4.75
-0.5         0.5           5
-0.5         0.5        5.25
-0.5         0.5         5.5
-0.5         0.5        5.75
-0.5         0.5           6
-0.5         0.5        6.25
-0.5         0.5         6.5
-0.5         0.5        6.75
-0.5         0.5           7
-0.5         0.5        7.25
-0.5         0.5         7.5
-0.5         0.5        7.75
-0.5         0.5           8
-0.5         0.5        8.25
-0.5         0.5         8.5
-0.5         0.5        8.75
-0.5         0.5           9
-0.5         0.5        9.25
-0.5         0.5         9.5
-0.5         0.5        9.75
-0.25       -0.25           0
-0.25  6.8756e-13           0
-0.25        0.25           0
-6.8756e-13       -0.25           0
-3.7821e-24           0           0
6.8756e-13        0.25           0
0.25       -0.25           0
0.25 -6.8756e-13           0
0.25        0.25           0
-0.25        -0.5        0.25
-0.25        -0.5         0.5
-0.25        -0.5        0.75
-0.25        -0.5           1
-0.25        -0.5        1.25
-0.25        -0.5         1.5
-0.25        -0.5        1.75
-0.25        -0.5           2
-0.25        -0.5        2.25
-0.25        -0.5         2.5
-0.25        -0.5        2.75
-0.25        -0.5           3
-0.25        -0.5        3.25
-0.25        -0.5         3.5
-0.25        -0.5        3.75
-0.25        -0.5           4
-0.25        -0.5        4.25
-0.25        -0.5         4.5
-0.25        -0.5        4.75
-0.25        -0.5           5
-0.25        -0.5        5.25
-0.25        -0.5         5.5
-0.25        -0.5        5.75
-0.25        -0.5           6
-0.25        -0.5        6.25
-0.25        -0.5         6.5
-0.25        -0.5        6.75
-0.25        -0.5           7
-0.25        -0.5        7.25
-0.25        -0.5         7.5
-0.25        -0.5        7.75
-0.25        -0.5           8
-0.25        -0.5        8.25
-0.25        -0.5         8.5
-0.25        -0.5        8.75
-0.25        -0.5           9
-0.25        -0.5        9.25
-0.25        -0.5         9.5
-0.25        -0.5        9.75
-1.3751e-12        -0.5        0.25
-1.3751e-12        -0.5         0.5
-1.3751e-12        -0.5        0.75
-1.3751e-12        -0.5           1
-1.3751e-12        -0.5        1.25
-1.3751e-12        -0.5         1.5
-1.3751e-12        -0.5        1.75
-1.3751e-12        -0.5           2
-1.3751e-12        -0.5        2.25
-1.3751e-12        -0.5         2.5
-1.3751e-12        -0.5        2.75
-1.3751e-12        -0.5           3
-1.3751e-12        -0.5        3.25
-1.3751e-12        -0.5         3.5
-1.3751e-12        -0.5        3.75
-1.3751e-12        -0.5           4
-1.3751e-12        -0.5        4.25
-1.3751e-12        -0.5         4.5
-1.3751e-12        -0.5        4.75
-1.3751e-12        -0.5           5
-1.3751e-12        -0.5        5.25
-1.3751e-12        -0.5         5.5
-1.3751e-12        -0.5        5.75
-1.3751e-12        -0.5           6
-1.3751e-12        -0.5        6.25
-1.3751e-12        -0.5         6.5
-1.3751e-12        -0.5        6.75
-1.3751e-12        -0.5           7
-1.3751e-12        -0.5        7.25
-1.3751e-12        -0.5         7.5
-1.3751e-12        -0.5        7.75
-1.3751e-12        -0.5           8
-1.3751e-12        -0.5        8.25
-1.3751e-12        -0.5         8.5
-1.3751e-12        -0.5        8.75
-1.3751e-12        -0.5           9
-1.3751e-12        -0.5        9.25
-1.3751e-12        -0.5         9.5
-1.3751e-12        -0.5        9.75
0.25        -0.5        0.25
0.25        -0.5         0.5
0.25        -0.5        0.75
0.25        -0.5           1
0.25        -0.5        1.25
0.25        -0.5         1.5
0.25        -0.5        1.75
0.25        -0.5           2
0.25        -0.5        2.25
0.25        -0.5         2.5
0.25        -0.5        2.75
0.25        -0.5           3
0.25        -0.5        3.25
0.25        -0.5         3.5
0.25        -0.5        3.75
0.25        -0.5           4
0.25        -0.5        4.25
0.25        -0.5         4.5
0.25        -0.5        4.75
0.25        -0.5           5
0.25        -0.5        5.25
0.25        -0.5         5.5
0.25        -0.5        5.75
0.25        -0.5           6
0.25        -0.5        6.25
0.25        -0.5         6.5
0.25        -0.5        6.75
0.25        -0.5           7
0.25        -0.5        7.25
0.25        -0.5         7.5
0.25        -0.5        7.75
0.25        -0.5           8
0.25        -0.5        8.25
0.25        -0.5         8.5
0.25        -0.5        8.75
0.25        -0.5           9
0.25        -0.5        9.25
0.25        -0.5         9.5
0.25        -0.5        9.75
0.5       -0.25        0.25
0.5       -0.25         0.5
0.5       -0.25        0.75
0.5       -0.25           1
0.5       -0.25        1.25
0.5       -0.25         1.5
0.5       -0.25        1.75
0.5       -0.25           2
0.5       -0.25        2.25
0.5       -0.25         2.5
0.5       -0.25        2.75
0.5       -0.25           3
0.5       -0.25        3.25
0.5       -0.25         3.5
0.5       -0.25        3.75
0.5       -0.25           4
0.5       -0.25        4.25
[...]
POINT_DATA 1025
VECTORS displacement double
0  0  0
0  0  0
0  0  0
0  0  0
-0.19352     0.63795    -0.68364
-0.63795    -0.19352    -0.68364
0.19352    -0.63795    -0.68364
0.63795     0.19352    -0.68364
0  0  0
0  0  0
0  0  0
0  0  0
0  0  0
0  0  0
0  0  0
0  0  0
0  0  0
0  0  0
0  0  0
0  0  0
-0.30463     0.43008    -0.69117
-0.41573     0.22221    -0.63349
-0.52684    0.014347    -0.59449
-0.43008    -0.30463    -0.69117
-0.22221    -0.41573    -0.63349
-0.014347    -0.52684    -0.59449
0.30463    -0.43008    -0.69117
0.41573    -0.22221    -0.63349
0.52684   -0.014347    -0.59449
0.43008     0.30463    -0.69117
0.22221     0.41573    -0.63349
0.014347     0.52684    -0.59449
0.14456   -0.076727  -0.0035759
0.32264    -0.14598   -0.022533
0.51612    -0.16656   -0.041738
0.70777    -0.13355   -0.058965
0.88093   -0.048027   -0.074352
1.0216    0.082896    -0.08887
1.1187     0.24825    -0.10322
1.1647      0.4344    -0.11764
1.1559     0.62599    -0.13213
1.0931     0.80722    -0.14665
0.98128     0.96312    -0.16118
0.82978      1.0808    -0.17571
0.65109      1.1506    -0.19023
0.45993      1.1667    -0.20475
0.27207      1.1278    -0.21928
0.10302      1.0371     -0.2338
-0.033283     0.90215    -0.24832
-0.12559     0.73398    -0.26284
-0.1663     0.54651    -0.27737
-0.15203      0.3552    -0.29189
-0.083979     0.17584    -0.30641
0.032248    0.023219    -0.32093
0.18706    -0.09007    -0.33546
0.36769    -0.15468    -0.34998
0.55924    -0.16528     -0.3645
0.74589    -0.12101    -0.37902
0.91227   -0.025499    -0.39354
1.0446     0.11336    -0.40806
1.1321     0.28412    -0.42259
1.1673     0.47271    -0.43713
1.1476     0.66356     -0.4517
1.0744     0.84091    -0.46627
0.95415      0.9901    -0.48072
0.79679      1.0989    -0.49473
0.61516       1.158    -0.50801
0.42285      1.1613    -0.52127
0.2331       1.104    -0.53852
0.06054     0.98492    -0.56898
-0.079194       0.817    -0.61865
0.076727     0.14456  -0.0035759
0.14598     0.32264   -0.022533
0.16656     0.51612   -0.041738
0.13355     0.70777   -0.058965
0.048027     0.88093   -0.074352
-0.082896      1.0216    -0.08887
-0.24825      1.1187    -0.10322
-0.4344      1.1647    -0.11764
-0.62599      1.1559    -0.13213
-0.80722      1.0931    -0.14665
-0.96312     0.98128    -0.16118
-1.0808     0.82978    -0.17571
-1.1506     0.65109    -0.19023
-1.1667     0.45993    -0.20475
-1.1278     0.27207    -0.21928
-1.0371     0.10302     -0.2338
-0.90215   -0.033283    -0.24832
-0.73398    -0.12559    -0.26284
-0.54651     -0.1663    -0.27737
-0.3552    -0.15203    -0.29189
-0.17584   -0.083979    -0.30641
-0.023219    0.032248    -0.32093
0.09007     0.18706    -0.33546
0.15468     0.36769    -0.34998
0.16528     0.55924     -0.3645
0.12101     0.74589    -0.37902
0.025499     0.91227    -0.39354
-0.11336      1.0446    -0.40806
-0.28412      1.1321    -0.42259
-0.47271      1.1673    -0.43713
-0.66356      1.1476     -0.4517
-0.84091      1.0744    -0.46627
-0.9901     0.95415    -0.48072
-1.0989     0.79679    -0.49473
-1.158     0.61516    -0.50801
-1.1613     0.42285    -0.52127
-1.104      0.2331    -0.53852
-0.98492     0.06054    -0.56898
-0.817   -0.079194    -0.61865
-0.14456    0.076727  -0.0035759
-0.32264     0.14598   -0.022533
-0.51612     0.16656   -0.041738
-0.70777     0.13355   -0.058965
-0.88093    0.048027   -0.074352
-1.0216   -0.082896    -0.08887
-1.1187    -0.24825    -0.10322
-1.1647     -0.4344    -0.11764
-1.1559    -0.62599    -0.13213
-1.0931    -0.80722    -0.14665
-0.98128    -0.96312    -0.16118
-0.82978     -1.0808    -0.17571
-0.65109     -1.1506    -0.19023
-0.45993     -1.1667    -0.20475
-0.27207     -1.1278    -0.21928
-0.10302     -1.0371     -0.2338
0.033283    -0.90215    -0.24832
0.12559    -0.73398    -0.26284
0.1663    -0.54651    -0.27737
0.15203     -0.3552    -0.29189
0.083979    -0.17584    -0.30641
-0.032248   -0.023219    -0.32093
-0.18706     0.09007    -0.33546
-0.36769     0.15468    -0.34998
-0.55924     0.16528     -0.3645
-0.74589     0.12101    -0.37902
-0.91227    0.025499    -0.39354
-1.0446    -0.11336    -0.40806
-1.1321    -0.28412    -0.42259
-1.1673    -0.47271    -0.43713
-1.1476    -0.66356     -0.4517
-1.0744    -0.84091    -0.46627
-0.95415     -0.9901    -0.48072
-0.79679     -1.0989    -0.49473
-0.61516      -1.158    -0.50801
-0.42285     -1.1613    -0.52127
-0.2331      -1.104    -0.53852
-0.06054    -0.98492    -0.56898
0.079194      -0.817    -0.61865
-0.076727    -0.14456  -0.0035759
-0.14598    -0.32264   -0.022533
-0.16656    -0.51612   -0.041738
-0.13355    -0.70777   -0.058965
-0.048027    -0.88093   -0.074352
0.082896     -1.0216    -0.08887
0.24825     -1.1187    -0.10322
0.4344     -1.1647    -0.11764
0.62599     -1.1559    -0.13213
0.80722     -1.0931    -0.14665
0.96312    -0.98128    -0.16118
1.0808    -0.82978    -0.17571
1.1506    -0.65109    -0.19023
1.1667    -0.45993    -0.20475
1.1278    -0.27207    -0.21928
1.0371    -0.10302     -0.2338
0.90215    0.033283    -0.24832
0.73398     0.12559    -0.26284
0.54651      0.1663    -0.27737
0.3552     0.15203    -0.29189
0.17584    0.083979    -0.30641
0.023219   -0.032248    -0.32093
-0.09007    -0.18706    -0.33546
-0.15468    -0.36769    -0.34998
-0.16528    -0.55924     -0.3645
-0.12101    -0.74589    -0.37902
-0.025499    -0.91227    -0.39354
0.11336     -1.0446    -0.40806
0.28412     -1.1321    -0.42259
0.47271     -1.1673    -0.43713
0.66356     -1.1476     -0.4517
0.84091     -1.0744    -0.46627
0.9901    -0.95415    -0.48072
1.0989    -0.79679    -0.49473
1.158    -0.61516    -0.50801
1.1613    -0.42285    -0.52127
1.104     -0.2331    -0.53852
0.98492    -0.06054    -0.56898
0.817    0.079194    -0.61865
0  0  0
0  0  0
0  0  0
0  0  0
0  0  0
0  0  0
0  0  0
0  0  0
0  0  0
0.12822   -0.025471   -0.044477
0.27586   -0.029212   -0.069039
0.42677    0.002733   -0.087583
0.56291    0.074894    -0.10335
0.67193     0.18185    -0.11791
0.74532     0.31495    -0.13224
0.77758     0.46327    -0.14663
0.76627     0.61466    -0.16112
0.71238     0.75663    -0.17564
0.62036     0.87746    -0.19017
0.49779     0.96717    -0.20469
0.35478      1.0183    -0.21922
0.20312      1.0267    -0.23374
0.055338     0.99168    -0.24826
-0.076389     0.91607    -0.26279
-0.18119     0.80614    -0.27731
-0.25042     0.67095    -0.29183
-0.27837     0.52166    -0.30635
-0.26273     0.37058    -0.32087
-0.2048     0.23018     -0.3354
-0.10934     0.11203    -0.34992
0.015756    0.025896    -0.36444
0.16018   -0.021131    -0.37896
0.31201   -0.025167    -0.39349
0.45873     0.01412    -0.40801
0.58822    0.093489    -0.42253
0.68982     0.20639    -0.43705
0.75513     0.34352    -0.45158
0.77877     0.49356     -0.4661
0.75877     0.64414    -0.48064
0.69679     0.78283    -0.49518
0.59801      0.8982    -0.50971
0.47072     0.98083    -0.52413
0.32551       1.024    -0.53831
0.17422      1.0241    -0.55227
0.028965     0.97917    -0.56688
-0.097654     0.88814    -0.58511
-0.19218     0.75281    -0.61236
-0.24748     0.59362    -0.64528
0.12027    0.027319  -0.0081263
0.23738    0.083316   -0.025024
0.34632     0.17059   -0.043941
0.42736     0.28424   -0.059971
0.47194     0.41536   -0.074511
0.47682     0.55312   -0.088761
0.44213     0.68638    -0.10312
0.37095     0.80429     -0.1176
0.26917     0.89714    -0.13212
0.14518     0.95725    -0.14666
0.0092207     0.97966    -0.16119
-0.1275     0.96249    -0.17571
-0.2537     0.90718    -0.19023
-0.35898     0.81827    -0.20475
-0.43463     0.70311    -0.21928
-0.47444     0.57119     -0.2338
-0.4751      0.4334    -0.24832
-0.43658      0.3011    -0.26284
-0.36203     0.18521    -0.27737
-0.25762    0.095291    -0.29189
-0.13196    0.038757    -0.30641
0.0045858    0.020273    -0.32093
0.14075    0.041364    -0.33546
0.26531     0.10029    -0.34998
0.36798     0.19219     -0.3645
0.4403     0.30948    -0.37902
0.47629     0.44249    -0.39355
0.47299     0.58024    -0.40806
0.43067     0.71138    -0.42258
0.3528     0.82507    -0.43711
0.24582     0.91196    -0.45166
0.11857     0.96488    -0.46625
-0.018369     0.97956    -0.48086
-0.15359     0.95497     -0.4953
-0.27589      0.8932    -0.50903
-0.37504     0.79841    -0.52137
-0.44155     0.67541    -0.53289
-0.4671     0.52793    -0.55054
-0.44659     0.36893     -0.5846
0.10091    0.092237     0.02061
0.19131     0.20862    0.016032
0.25421     0.34828   0.0008886
0.27739     0.50016   -0.015214
0.25622     0.65141   -0.030509
0.19254     0.78951   -0.045194
0.092094     0.90337   -0.059671
-0.03661     0.98391   -0.074136
-0.18292      1.0246   -0.088633
-0.33478       1.022    -0.10315
-0.47965     0.97634    -0.11767
-0.60558     0.89142     -0.1322
-0.70217      0.7742    -0.14672
-0.76146     0.63437    -0.16125
-0.77856     0.48345    -0.17577
-0.75205     0.33389    -0.19029
-0.68413     0.19804    -0.20481
-0.58039    0.087099    -0.21934
-0.4494    0.010219    -0.23386
-0.30196   -0.026256    -0.24838
-0.15023   -0.019318     -0.2629
-0.0067352     0.03046    -0.27742
0.11669     0.11897    -0.29195
0.20987     0.23892    -0.30647
0.26511      0.3804    -0.32099
0.27786     0.53175    -0.33551
0.24706     0.68048    -0.35004
0.17526     0.81432    -0.36456
0.06837     0.92223    -0.37908
-0.064796     0.99531     -0.3936
-0.21326      1.0275    -0.40815
-0.36475      1.0163    -0.42272
-0.50672     0.96254     -0.4373
-0.62739     0.87097    -0.45172
-0.71666     0.74912    -0.46562
-0.76657     0.60619    -0.47869
-0.77091     0.45114    -0.49198
-0.72497     0.29244    -0.51023
-0.63086     0.13901    -0.54701
0.025471     0.12822   -0.044477
0.029212     0.27586   -0.069039
-0.002733     0.42677   -0.087583
-0.074894     0.56291    -0.10335
-0.18185     0.67193    -0.11791
-0.31495     0.74532    -0.13224
-0.46327     0.77758    -0.14663
-0.61466     0.76627    -0.16112
-0.75663     0.71238    -0.17564
-0.87746     0.62036    -0.19017
-0.96717     0.49779    -0.20469
-1.0183     0.35478    -0.21922
-1.0267     0.20312    -0.23374
-0.99168    0.055338    -0.24826
-0.91607   -0.076389    -0.26279
-0.80614    -0.18119    -0.27731
-0.67095    -0.25042    -0.29183
-0.52166    -0.27837    -0.30635
-0.37058    -0.26273    -0.32087
-0.23018     -0.2048     -0.3354
-0.11203    -0.10934    -0.34992
-0.025896    0.015756    -0.36444
0.021131     0.16018    -0.37896
0.025167     0.31201    -0.39349
-0.01412     0.45873    -0.40801
-0.093489     0.58822    -0.42253
-0.20639     0.68982    -0.43705
-0.34352     0.75513    -0.45158
-0.49356     0.77877     -0.4661
-0.64414     0.75877    -0.48064
-0.78283     0.69679    -0.49518
-0.8982     0.59801    -0.50971
-0.98083     0.47072    -0.52413
-1.024     0.32551    -0.53831
-1.0241     0.17422    -0.55227
-0.97917    0.028965    -0.56688
-0.88814   -0.097654    -0.58511
-0.75281    -0.19218    -0.61236
-0.59362    -0.24748    -0.64528
-0.027319     0.12027  -0.0081263
-0.083316     0.23738   -0.025024
-0.17059     0.34632   -0.043941
-0.28424     0.42736   -0.059971
-0.41536     0.47194   -0.074511
-0.55312     0.47682   -0.088761
-0.68638     0.44213    -0.10312
-0.80429     0.37095     -0.1176
-0.89714     0.26917    -0.13212
-0.95725     0.14518    -0.14666
-0.97966   0.0092207    -0.16119
-0.96249     -0.1275    -0.17571
-0.90718     -0.2537    -0.19023
-0.81827    -0.35898    -0.20475
-0.70311    -0.43463    -0.21928
-0.57119    -0.47444     -0.2338
-0.4334     -0.4751    -0.24832
-0.3011    -0.43658    -0.26284
-0.18521    -0.36203    -0.27737
-0.095291    -0.25762    -0.29189
-0.038757    -0.13196    -0.30641
-0.020273   0.0045858    -0.32093
-0.041364     0.14075    -0.33546
-0.10029     0.26531    -0.34998
-0.19219     0.36798     -0.3645
-0.30948      0.4403    -0.37902
-0.44249     0.47629    -0.39355
-0.58024     0.47299    -0.40806
-0.71138     0.43067    -0.42258
-0.82507      0.3528    -0.43711
-0.91196     0.24582    -0.45166
-0.96488     0.11857    -0.46625
-0.97956   -0.018369    -0.48086
-0.95497    -0.15359     -0.4953
-0.8932    -0.27589    -0.50903
-0.79841    -0.37504    -0.52137
-0.67541    -0.44155    -0.53289
-0.52793     -0.4671    -0.55054
-0.36893    -0.44659     -0.5846
-0.092237     0.10091     0.02061
-0.20862     0.19131    0.016032
-0.34828     0.25421   0.0008886
-0.50016     0.27739   -0.015214
-0.65141     0.25622   -0.030509
-0.78951     0.19254   -0.045194
-0.90337    0.092094   -0.059671
-0.98391    -0.03661   -0.074136
-1.0246    -0.18292   -0.088633
-1.022    -0.33478    -0.10315
-0.97634    -0.47965    -0.11767
-0.89142    -0.60558     -0.1322
-0.7742    -0.70217    -0.14672
-0.63437    -0.76146    -0.16125
-0.48345    -0.77856    -0.17577
-0.33389    -0.75205    -0.19029
-0.19804    -0.68413    -0.20481
-0.087099    -0.58039    -0.21934
-0.010219     -0.4494    -0.23386
0.026256    -0.30196    -0.24838
0.019318    -0.15023     -0.2629
-0.03046  -0.0067352    -0.27742
-0.11897     0.11669    -0.29195
-0.23892     0.20987    -0.30647
-0.3804     0.26511    -0.32099
-0.53175     0.27786    -0.33551
-0.68048     0.24706    -0.35004
-0.81432     0.17526    -0.36456
-0.92223     0.06837    -0.37908
-0.99531   -0.064796     -0.3936
-1.0275    -0.21326    -0.40815
-1.0163    -0.36475    -0.42272
-0.96254    -0.50672     -0.4373
-0.87097    -0.62739    -0.45172
-0.74912    -0.71666    -0.46562
-0.60619    -0.76657    -0.47869
-0.45114    -0.77091    -0.49198
-0.29244    -0.72497    -0.51023
-0.13901    -0.63086    -0.54701
-0.12822    0.025471   -0.044477
-0.27586    0.029212   -0.069039
-0.42677   -0.002733   -0.087583
-0.56291   -0.074894    -0.10335
-0.67193    -0.18185    -0.11791
-0.74532    -0.31495    -0.13224
-0.77758    -0.46327    -0.14663
-0.76627    -0.61466    -0.16112
-0.71238    -0.75663    -0.17564
-0.62036    -0.87746    -0.19017
-0.49779    -0.96717    -0.20469
-0.35478     -1.0183    -0.21922
-0.20312     -1.0267    -0.23374
-0.055338    -0.99168    -0.24826
0.076389    -0.91607    -0.26279
0.18119    -0.80614    -0.27731
0.25042    -0.67095    -0.29183
0.27837    -0.52166    -0.30635
0.26273    -0.37058    -0.32087
0.2048    -0.23018     -0.3354
0.10934    -0.11203    -0.34992
-0.015756   -0.025896    -0.36444
-0.16018    0.021131    -0.37896
-0.31201    0.025167    -0.39349
-0.45873    -0.01412    -0.40801
-0.58822   -0.093489    -0.42253
-0.68982    -0.20639    -0.43705
-0.75513    -0.34352    -0.45158
-0.77877    -0.49356     -0.4661
-0.75877    -0.64414    -0.48064
-0.69679    -0.78283    -0.49518
-0.59801     -0.8982    -0.50971
-0.47072    -0.98083    -0.52413
-0.32551      -1.024    -0.53831
-0.17422     -1.0241    -0.55227
-0.028965    -0.97917    -0.56688
0.097654    -0.88814    -0.58511
0.19218    -0.75281    -0.61236
0.24748    -0.59362    -0.64528
-0.12027   -0.027319  -0.0081263
-0.23738   -0.083316   -0.025024
-0.34632    -0.17059   -0.043941
-0.42736    -0.28424   -0.059971
-0.47194    -0.41536   -0.074511
-0.47682    -0.55312   -0.088761
-0.44213    -0.68638    -0.10312
-0.37095    -0.80429     -0.1176
-0.26917    -0.89714    -0.13212
-0.14518    -0.95725    -0.14666
-0.0092207    -0.97966    -0.16119
0.1275    -0.96249    -0.17571
0.2537    -0.90718    -0.19023
0.35898    -0.81827    -0.20475
0.43463    -0.70311    -0.21928
0.47444    -0.57119     -0.2338
0.4751     -0.4334    -0.24832
0.43658     -0.3011    -0.26284
0.36203    -0.18521    -0.27737
0.25762   -0.095291    -0.29189
0.13196   -0.038757    -0.30641
-0.0045858   -0.020273    -0.32093
-0.14075   -0.041364    -0.33546
-0.26531    -0.10029    -0.34998
-0.36798    -0.19219     -0.3645
-0.4403    -0.30948    -0.37902
-0.47629    -0.44249    -0.39355
-0.47299    -0.58024    -0.40806
-0.43067    -0.71138    -0.42258
-0.3528    -0.82507    -0.43711
-0.24582    -0.91196    -0.45166
-0.11857    -0.96488    -0.46625
0.018369    -0.97956    -0.48086
0.15359    -0.95497     -0.4953
0.27589     -0.8932    -0.50903
0.37504    -0.79841    -0.52137
0.44155    -0.67541    -0.53289
0.4671    -0.52793    -0.55054
0.44659    -0.36893     -0.5846
-0.10091   -0.092237     0.02061
-0.19131    -0.20862    0.016032
-0.25421    -0.34828   0.0008886
-0.27739    -0.50016   -0.015214
-0.25622    -0.65141   -0.030509
-0.19254    -0.78951   -0.045194
-0.092094    -0.90337   -0.059671
0.03661    -0.98391   -0.074136
0.18292     -1.0246   -0.088633
0.33478      -1.022    -0.10315
0.47965    -0.97634    -0.11767
0.60558    -0.89142     -0.1322
0.70217     -0.7742    -0.14672
0.76146    -0.63437    -0.16125
0.77856    -0.48345    -0.17577
0.75205    -0.33389    -0.19029
0.68413    -0.19804    -0.20481
0.58039   -0.087099    -0.21934
0.4494   -0.010219    -0.23386
0.30196    0.026256    -0.24838
0.15023    0.019318     -0.2629
0.0067352    -0.03046    -0.27742
-0.11669    -0.11897    -0.29195
-0.20987    -0.23892    -0.30647
-0.26511     -0.3804    -0.32099
-0.27786    -0.53175    -0.33551
-0.24706    -0.68048    -0.35004
-0.17526    -0.81432    -0.36456
-0.06837    -0.92223    -0.37908
0.064796    -0.99531     -0.3936
0.21326     -1.0275    -0.40815
0.36475     -1.0163    -0.42272
0.50672    -0.96254     -0.4373
0.62739    -0.87097    -0.45172
0.71666    -0.74912    -0.46562
0.76657    -0.60619    -0.47869
0.77091    -0.45114    -0.49198
0.72497    -0.29244    -0.51023
0.63086    -0.13901    -0.54701
-0.025471    -0.12822   -0.044477
-0.029212    -0.27586   -0.069039
0.002733    -0.42677   -0.087583
0.074894    -0.56291    -0.10335
0.18185    -0.67193    -0.11791
0.31495    -0.74532    -0.13224
0.46327    -0.77758    -0.14663
0.61466    -0.76627    -0.16112
0.75663    -0.71238    -0.17564
0.87746    -0.62036    -0.19017
0.96717    -0.49779    -0.20469
1.0183    -0.35478    -0.21922
1.0267    -0.20312    -0.23374
0.99168   -0.055338    -0.24826
0.91607    0.076389    -0.26279
0.80614     0.18119    -0.27731
0.67095     0.25042    -0.29183
0.52166     0.27837    -0.30635
0.37058     0.26273    -0.32087
0.23018      0.2048     -0.3354
0.11203     0.10934    -0.34992
0.025896   -0.015756    -0.36444
-0.021131    -0.16018    -0.37896
-0.025167    -0.31201    -0.39349
0.01412    -0.45873    -0.40801
0.093489    -0.58822    -0.42253
0.20639    -0.68982    -0.43705
0.34352    -0.75513    -0.45158
0.49356    -0.77877     -0.4661
0.64414    -0.75877    -0.48064
0.78283    -0.69679    -0.49518
0.8982    -0.59801    -0.50971
0.98083    -0.47072    -0.52413
1.024    -0.32551    -0.53831
1.0241    -0.17422    -0.55227
0.97917   -0.028965    -0.56688
0.88814    0.097654    -0.58511
0.75281     0.19218    -0.61236
0.59362     0.24748    -0.64528
0.027319    -0.12027  -0.0081263
0.083316    -0.23738   -0.025024
0.17059    -0.34632   -0.043941
0.28424    -0.42736   -0.059971
0.41536    -0.47194   -0.074511
0.55312    -0.47682   -0.088761
0.68638    -0.44213    -0.10312
0.80429    -0.37095     -0.1176
0.89714    -0.26917    -0.13212
0.95725    -0.14518    -0.14666
0.97966  -0.0092207    -0.16119
0.96249      0.1275    -0.17571
0.90718      0.2537    -0.19023
0.81827     0.35898    -0.20475
0.70311     0.43463    -0.21928
0.57119     0.47444     -0.2338
0.4334      0.4751    -0.24832
0.3011     0.43658    -0.26284
0.18521     0.36203    -0.27737
0.095291     0.25762    -0.29189
0.038757     0.13196    -0.30641
0.020273  -0.0045858    -0.32093
0.041364    -0.14075    -0.33546
0.10029    -0.26531    -0.34998
0.19219    -0.36798     -0.3645
0.30948     -0.4403    -0.37902
0.44249    -0.47629    -0.39355
0.58024    -0.47299    -0.40806
0.71138    -0.43067    -0.42258
0.82507     -0.3528    -0.43711
0.91196    -0.24582    -0.45166
0.96488    -0.11857    -0.46625
0.97956    0.018369    -0.48086
0.95497     0.15359     -0.4953
0.8932     0.27589    -0.50903
0.79841     0.37504    -0.52137
0.67541     0.44155    -0.53289
0.52793      0.4671    -0.55054
0.36893     0.44659     -0.5846
0.092237    -0.10091     0.02061
0.20862    -0.19131    0.016032
0.34828    -0.25421   0.0008886
0.50016    -0.27739   -0.015214
0.65141    -0.25622   -0.030509
0.78951    -0.19254   -0.045194