# vtk DataFile Version 3.0
VTK Output
ASCII
DATASET UNSTRUCTURED_GRID

POINTS 1025 float
-0.5        -0.5           0
0.5        -0.5           0
0.5         0.5           0
-0.5         0.5           0
-0.5         -0.5           10
0.5         -0.5           10
0.5          0.5           10
-0.5          0.5           10
-0.25        -0.5           0
-1.3751e-12        -0.5           0
0.25        -0.5           0
0.5       -0.25           0
0.5 -1.3751e-12           0
0.5        0.25           0
0.25         0.5           0
1.3751e-12         0.5           0
-0.25         0.5           0
-0.5        0.25           0
-0.5  1.3751e-12           0
-0.5       -0.25           0
-0.25         -0.5           10
-1.37512e-12         -0.5           10
0.25         -0.5           10
0.5        -0.25           10
0.5 -1.37512e-12           10
0.5         0.25           10
0.25          0.5           10
1.37512e-12          0.5           10
-0.25          0.5           10
-0.5         0.25           10
-0.5  1.37512e-12           10
-0.5        -0.25           10
-0.5        -0.5        0.25
-0.5        -0.5         0.5
-0.5        -0.5        0.75
-0.5        -0.5           1
-0.5        -0.5        1.25
-0.5        -0.5         1.5
-0.5        -0.5        1.75
-0.5        -0.5           2
-0.5        -0.5        2.25
-0.5        -0.5         2.5
-0.5        -0.5        2.75
-0.5        -0.5           3
-0.5        -0.5        3.25
-0.5        -0.5         3.5
-0.5        -0.5        3.75
-0.5        -0.5           4
-0.5        -0.5        4.25
-0.5        -0.5         4.5
-0.5        -0.5        4.75
-0.5        -0.5           5
-0.5        -0.5        5.25
-0.5        -0.5         5.5
-0.5        -0.5        5.75
-0.5        -0.5           6
-0.5        -0.5        6.25
-0.5        -0.5         6.5
-0.5        -0.5        6.75
-0.5        -0.5           7
-0.5        -0.5        7.25
-0.5        -0.5         7.5
-0.5        -0.5        7.75
-0.5        -0.5           8
-0.5        -0.5        8.25
-0.5        -0.5         8.5
-0.5        -0.5        8.75
-0.5        -0.5           9
-0.5        -0.5        9.25
-0.5        -0.5         9.5
-0.5        -0.5        9.75
0.5        -0.5        0.25
0.5        -0.5         0.5
0.5        -0.5        0.75
0.5        -0.5           1
0.5        -0.5        1.25
0.5        -0.5         1.5
0.5        -0.5        1.75
0.5        -0.5           2
0.5        -0.5        2.25
0.5        -0.5         2.5
0.5        -0.5        2.75
0.5        -0.5           3
0.5        -0.5        3.25
0.5        -0.5         3.5
0.5        -0.5        3.75
0.5        -0.5           4
0.5        -0.5        4.25
0.5        -0.5         4.5
0.5        -0.5        4.75
0.5        -0.5           5
0.5        -0.5        5.25
0.5        -0.5         5.5
0.5        -0.5        5.75
0.5        -0.5           6
0.5        -0.5        6.25
0.5        -0.5         6.5
0.5        -0.5        6.75
0.5        -0.5           7
0.5        -0.5        7.25
0.5        -0.5         7.5
0.5        -0.5        7.75
0.5        -0.5           8
0.5        -0.5        8.25
0.5        -0.5         8.5
0.5        -0.5        8.75
0.5        -0.5           9
0.5        -0.5        9.25
0.5        -0.5         9.5
0.5        -0.5        9.75
0.5         0.5        0.25
0.5         0.5         0.5
0.5         0.5        0.75
0.5         0.5           1
0.5         0.5        1.25
0.5         0.5         1.5
0.5         0.5        1.75
0.5         0.5           2
0.5         0.5        2.25
0.5         0.5         2.5
0.5         0.5        2.75
0.5         0.5           3
0.5         0.5        3.25
0.5         0.5         3.5
0.5         0.5        3.75
0.5         0.5           4
0.5         0.5        4.25
0.5         0.5         4.5
0.5         0.5        4.75
0.5         0.5           5
0.5         0.5        5.25
0.5         0.5         5.5
0.5         0.5        5.75
0.5         0.5           6
0.5         0.5        6.25
0.5         0.5         6.5
0.5         0.5        6.75
0.5         0.5           7
0.5         0.5        7.25
0.5         0.5         7.5
0.5         0.5        7.75
0.5         0.5           8
0.5         0.5        8.25
0.5         0.5         8.5
0.5         0.5        8.75
0.5         0.5           9
0.5         0.5        9.25
0.5         0.5         9.5
0.5         0.5        9.75
-0.5         0.5        0.25
-0.5         0.5         0.5
-0.5         0.5        0.75
-0.5         0.5           1
-0.5         0.5        1.25
-0.5         0.5         1.5
-0.5         0.5        1.75
-0.5         0.5           2
-0.5         0.5        2.25
-0.5         0.5         2.5
-0.5         0.5        2.75
-0.5         0.5           3
-0.5         0.5        3.25
-0.5         0.5         3.5
-0.5         0.5        3.75
-0.5         0.5           4
-0.5         0.5        4.25
-0.5         0.5         4.5
-0.5         0.5        4.75
-0.5         0.5           5
-0.5         0.5        5.25
-0.5         0.5         5.5
-0.5         0.5        5.75
-0.5         0.5           6
-0.5         0.5        6.25
-0.5         0.5         6.5
-0.5         0.5        6.75
-0.5         0.5           7
-0.5         0.5        7.25
-0.5         0.5         7.5
-0.5         0.5        7.75
-0.5         0.5           8
-0.5         0.5        8.25
-0.5         0.5         8.5
-0.5         0.5        8.75
-0.5         0.5           9
-0.5         0.5        9.25
-0.5         0.5         9.5
-0.5         0.5        9.75
-0.25       -0.25           0
-0.25  6.8756e-13           0
-0.25        0.25           0
-6.8756e-13       -0.25           0
-3.7821e-24           0           0
6.8756e-13        0.25           0
0.25       -0.25           0
0.25 -6.8756e-13           0
0.25        0.25           0
-0.25        -0.5        0.25
-0.25        -0.5         0.5
-0.25        -0.5        0.75
-0.25        -0.5           1
-0.25        -0.5        1.25
-0.25        -0.5         1.5
-0.25        -0.5        1.75
-0.25        -0.5           2
-0.25        -0.5        2.25
-0.25        -0.5         2.5
-0.25        -0.5        2.75
-0.25        -0.5           3
-0.25        -0.5        3.25
-0.25        -0.5         3.5
-0.25        -0.5        3.75
-0.25        -0.5           4
-0.25        -0.5        4.25
-0.25        -0.5         4.5
-0.25        -0.5        4.75
-0.25        -0.5           5
-0.25        -0.5        5.25
-0.25        -0.5         5.5
-0.25        -0.5        5.75
-0.25        -0.5           6
-0.25        -0.5        6.25
-0.25        -0.5         6.5
-0.25        -0.5        6.75
-0.25        -0.5           7
-0.25        -0.5        7.25
-0.25        -0.5         7.5
-0.25        -0.5        7.75
-0.25        -0.5           8
-0.25        -0.5        8.25
-0.25        -0.5         8.5
-0.25        -0.5        8.75
-0.25        -0.5           9
-0.25        -0.5        9.25
-0.25        -0.5         9.5
-0.25        -0.5        9.75
-1.3751e-12        -0.5        0.25
-1.3751e-12        -0.5         0.5
-1.3751e-12        -0.5        0.75
-1.3751e-12        -0.5           1
-1.3751e-12        -0.5        1.25
-1.3751e-12        -0.5         1.5
-1.3751e-12        -0.5        1.75
-1.3751e-12        -0.5           2
-1.3751e-12        -0.5        2.25
-1.3751e-12        -0.5         2.5
-1.3751e-12        -0.5        2.75
-1.3751e-12        -0.5           3
-1.3751e-12        -0.5        3.25
-1.3751e-12        -0.5         3.5
-1.3751e-12        -0.5        3.75
-1.3751e-12        -0.5           4
-1.3751e-12        -0.5        4.25
-1.3751e-12        -0.5         4.5
-1.3751e-12        -0.5        4.75
-1.3751e-12        -0.5           5
-1.3751e-12        -0.5        5.25
-1.3751e-12        -0.5         5.5
-1.3751e-12        -0.5        5.75
-1.3751e-12        -0.5           6
-1.3751e-12        -0.5        6.25
-1.3751e-12        -0.5         6.5
-1.3751e-12        -0.5        6.75
-1.3751e-12        -0.5           7
-1.3751e-12        -0.5        7.25
-1.3751e-12        -0.5         7.5
-1.3751e-12        -0.5        7.75
-1.3751e-12        -0.5           8
-1.3751e-12        -0.5        8.25
-1.3751e-12        -0.5         8.5
-1.3751e-12        -0.5        8.75
-1.3751e-12        -0.5           9
-1.3751e-12        -0.5        9.25
-1.3751e-12        -0.5         9.5
-1.3751e-12        -0.5        9.75
0.25        -0.5        0.25
0.25        -0.5         0.5
0.25        -0.5        0.75
0.25        -0.5           1
0.25        -0.5        1.25
0.25        -0.5         1.5
0.25        -0.5        1.75
0.25        -0.5           2
0.25        -0.5        2.25
0.25        -0.5         2.5
0.25        -0.5        2.75
0.25        -0.5           3
0.25        -0.5        3.25
0.25        -0.5         3.5
0.25        -0.5        3.75
0.25        -0.5           4
0.25        -0.5        4.25
0.25        -0.5         4.5
0.25        -0.5        4.75
0.25        -0.5           5
0.25        -0.5        5.25
0.25        -0.5         5.5
0.25        -0.5        5.75
0.25        -0.5           6
0.25        -0.5        6.25
0.25        -0.5         6.5
0.25        -0.5        6.75
0.25        -0.5           7
0.25        -0.5        7.25
0.25        -0.5         7.5
0.25        -0.5        7.75
0.25        -0.5           8
0.25        -0.5        8.25
0.25        -0.5         8.5
0.25        -0.5        8.75
0.25        -0.5           9
0.25        -0.5        9.25
0.25        -0.5         9.5
0.25        -0.5        9.75
0.5       -0.25        0.25
0.5       -0.25         0.5
0.5       -0.25        0.75
0.5       -0.25           1
0.5       -0.25        1.25
0.5       -0.25         1.5
0.5       -0.25        1.75
0.5       -0.25           2
0.5       -0.25        2.25
0.5       -0.25         2.5
0.5       -0.25        2.75
0.5       -0.25           3
0.5       -0.25        3.25
0.5       -0.25         3.5
0.5       -0.25        3.75
0.5       -0.25           4
0.5       -0.25        4.25
[...]
POINT_DATA 1025
VECTORS displacement double
0  0  0
0  0  0
0  0  0
0  0  0
1.1102e-16           1    -0.11999
-1 -3.3307e-16    -0.11999
0          -1    -0.11999
1  1.1102e-16    -0.11999
0  0  0
0  0  0
0  0  0
0  0  0
0  0  0
0  0  0
0  0  0
0  0  0
0  0  0
0  0  0
0  0  0
0  0  0
-0.25        0.75    -0.13279
-0.5         0.5    -0.11275
-0.75        0.25   -0.096267
-0.75       -0.25    -0.13279
-0.5        -0.5    -0.11275
-0.25       -0.75   -0.096267
0.25       -0.75    -0.13279
0.5        -0.5    -0.11275
0.75       -0.25   -0.096267
0.75        0.25    -0.13279
0.5         0.5    -0.11275
0.25        0.75   -0.096267
0.057082   -0.044368  -0.0010695
0.12642   -0.093353   -0.005065
0.19966    -0.13323    -0.00824
0.27644    -0.16421   -0.011117
0.3562    -0.18594   -0.013863
0.43794    -0.19812   -0.016554
0.52053    -0.20058   -0.019234
0.60283    -0.19329   -0.021916
0.6837    -0.17637   -0.024601
0.76203    -0.15006   -0.027287
0.83671     -0.1147   -0.029972
0.90671   -0.070804   -0.032658
0.97106   -0.018973   -0.035344
1.0289     0.04007    -0.03803
1.0793     0.10551   -0.040716
1.1217     0.17642   -0.043402
1.1555     0.25184   -0.046088
1.1801      0.3307   -0.048774
1.1953     0.41192    -0.05146
1.2009     0.49436   -0.054146
1.1966     0.57688   -0.056832
1.1828     0.65833   -0.059518
1.1594     0.73758   -0.062203
1.1268     0.81353   -0.064889
1.0856     0.88512   -0.067575
1.0362     0.95136   -0.070261
0.97935      1.0113   -0.072947
0.91584      1.0642   -0.075633
0.84655      1.1092   -0.078319
0.77245      1.1458   -0.081005
0.69456      1.1733   -0.083692
0.61397      1.1916   -0.086377
0.5318      1.2002   -0.089057
0.44919       1.199    -0.09172
0.36729      1.1882   -0.094354
0.28721      1.1676   -0.097001
0.20999      1.1376   -0.099926
0.13639      1.0984    -0.10396
0.066659      1.0513    -0.11031
0.044368    0.057082  -0.0010695
0.093353     0.12642   -0.005065
0.13323     0.19966    -0.00824
0.16421     0.27644   -0.011117
0.18594      0.3562   -0.013863
0.19812     0.43794   -0.016554
0.20058     0.52053   -0.019234
0.19329     0.60283   -0.021916
0.17637      0.6837   -0.024601
0.15006     0.76203   -0.027287
0.1147     0.83671   -0.029972
0.070804     0.90671   -0.032658
0.018973     0.97106   -0.035344
-0.04007      1.0289    -0.03803
-0.10551      1.0793   -0.040716
-0.17642      1.1217   -0.043402
-0.25184      1.1555   -0.046088
-0.3307      1.1801   -0.048774
-0.41192      1.1953    -0.05146
-0.49436      1.2009   -0.054146
-0.57688      1.1966   -0.056832
-0.65833      1.1828   -0.059518
-0.73758      1.1594   -0.062203
-0.81353      1.1268   -0.064889
-0.88512      1.0856   -0.067575
-0.95136      1.0362   -0.070261
-1.0113     0.97935   -0.072947
-1.0642     0.91584   -0.075633
-1.1092     0.84655   -0.078319
-1.1458     0.77245   -0.081005
-1.1733     0.69456   -0.083692
-1.1916     0.61397   -0.086377
-1.2002      0.5318   -0.089057
-1.199     0.44919    -0.09172
-1.1882     0.36729   -0.094354
-1.1676     0.28721   -0.097001
-1.1376     0.20999   -0.099926
-1.0984     0.13639    -0.10396
-1.0513    0.066659    -0.11031
-0.057082    0.044368  -0.0010695
-0.12642    0.093353   -0.005065
-0.19966     0.13323    -0.00824
-0.27644     0.16421   -0.011117
-0.3562     0.18594   -0.013863
-0.43794     0.19812   -0.016554
-0.52053     0.20058   -0.019234
-0.60283     0.19329   -0.021916
-0.6837     0.17637   -0.024601
-0.76203     0.15006   -0.027287
-0.83671      0.1147   -0.029972
-0.90671    0.070804   -0.032658
-0.97106    0.018973   -0.035344
-1.0289    -0.04007    -0.03803
-1.0793    -0.10551   -0.040716
-1.1217    -0.17642   -0.043402
-1.1555    -0.25184   -0.046088
-1.1801     -0.3307   -0.048774
-1.1953    -0.41192    -0.05146
-1.2009    -0.49436   -0.054146
-1.1966    -0.57688   -0.056832
-1.1828    -0.65833   -0.059518
-1.1594    -0.73758   -0.062203
-1.1268    -0.81353   -0.064889
-1.0856    -0.88512   -0.067575
-1.0362    -0.95136   -0.070261
-0.97935     -1.0113   -0.072947
-0.91584     -1.0642   -0.075633
-0.84655     -1.1092   -0.078319
-0.77245     -1.1458   -0.081005
-0.69456     -1.1733   -0.083692
-0.61397     -1.1916   -0.086377
-0.5318     -1.2002   -0.089057
-0.44919      -1.199    -0.09172
-0.36729     -1.1882   -0.094354
-0.28721     -1.1676   -0.097001
-0.20999     -1.1376   -0.099926
-0.13639     -1.0984    -0.10396
-0.066659     -1.0513    -0.11031
-0.044368   -0.057082  -0.0010695
-0.093353    -0.12642   -0.005065
-0.13323    -0.19966    -0.00824
-0.16421    -0.27644   -0.011117
-0.18594     -0.3562   -0.013863
-0.19812    -0.43794   -0.016554
-0.20058    -0.52053   -0.019234
-0.19329    -0.60283   -0.021916
-0.17637     -0.6837   -0.024601
-0.15006    -0.76203   -0.027287
-0.1147    -0.83671   -0.029972
-0.070804    -0.90671   -0.032658
-0.018973    -0.97106   -0.035344
0.04007     -1.0289    -0.03803
0.10551     -1.0793   -0.040716
0.17642     -1.1217   -0.043402
0.25184     -1.1555   -0.046088
0.3307     -1.1801   -0.048774
0.41192     -1.1953    -0.05146
0.49436     -1.2009   -0.054146
0.57688     -1.1966   -0.056832
0.65833     -1.1828   -0.059518
0.73758     -1.1594   -0.062203
0.81353     -1.1268   -0.064889
0.88512     -1.0856   -0.067575
0.95136     -1.0362   -0.070261
1.0113    -0.97935   -0.072947
1.0642    -0.91584   -0.075633
1.1092    -0.84655   -0.078319
1.1458    -0.77245   -0.081005
1.1733    -0.69456   -0.083692
1.1916    -0.61397   -0.086377
1.2002     -0.5318   -0.089057
1.199    -0.44919    -0.09172
1.1882    -0.36729   -0.094354
1.1676    -0.28721   -0.097001
1.1376    -0.20999   -0.099926
1.0984    -0.13639    -0.10396
1.0513   -0.066659    -0.11031
0  0  0
0  0  0
0  0  0
0  0  0
0  0  0
0  0  0
0  0  0
0  0  0
0  0  0
0.056315   -0.020332   -0.016772
0.11787   -0.038024   -0.022982
0.18237    -0.04984   -0.026119
0.2477   -0.053981   -0.028863
0.31295   -0.050436   -0.031545
0.3773   -0.039219   -0.034223
0.43987   -0.020497   -0.036905
0.4998   0.0054642   -0.039589
0.55627    0.038299   -0.042275
0.60847    0.077551   -0.044961
0.6557     0.12267   -0.047647
0.69729     0.17304   -0.050333
0.73266     0.22795   -0.053019
0.76132     0.28664   -0.055705
0.78287      0.3483    -0.05839
0.79702     0.41207   -0.061076
0.80357     0.47706   -0.063762
0.80242     0.54236   -0.066448
0.7936     0.60708   -0.069134
0.77722     0.67031    -0.07182
0.75351     0.73117   -0.074506
0.72281     0.78882   -0.077192
0.68553     0.84246   -0.079878
0.6422     0.89133   -0.082564
0.59342     0.93477    -0.08525
0.53987     0.97217   -0.087935
0.48229       1.003   -0.090621
0.42148      1.0268   -0.093307
0.35829      1.0434   -0.095993
0.29359      1.0523   -0.098679
0.22828      1.0536    -0.10137
0.16328      1.0472    -0.10405
0.099489      1.0332    -0.10673
0.037789      1.0118    -0.10941
-0.020957     0.98326    -0.11208
-0.075925     0.94789    -0.11476
-0.12632     0.90596    -0.11759
-0.1715     0.85784    -0.12098
-0.21116     0.80491    -0.12555
0.056607    0.005642  -0.0022432
0.11076    0.016093   -0.005279
0.16669    0.032572  -0.0084188
0.22066    0.055406   -0.011199
0.27152    0.084445   -0.013875
0.31855     0.11928   -0.016548
0.36115     0.15941    -0.01923
0.39872     0.20428   -0.021915
0.43075     0.25326     -0.0246
0.4568     0.30567   -0.027287
0.47649     0.36077   -0.029972
0.48957     0.41782   -0.032658
0.49584       0.476   -0.035344
0.49521     0.53452    -0.03803
0.48771     0.59256   -0.040716
0.47343     0.64932   -0.043402
0.45256     0.70399   -0.046088
0.42541     0.75584   -0.048774
0.39235     0.80412    -0.05146
0.35383     0.84818   -0.054146
0.3104     0.88741   -0.056832
0.26265     0.92124   -0.059518
0.21125     0.94922   -0.062203
0.15691     0.97096   -0.064889
0.1004     0.98616   -0.067575
0.042485     0.99459   -0.070261
-0.016017     0.99616   -0.072947
-0.074296     0.99082   -0.075633
-0.13154     0.97867   -0.078319
-0.18696     0.95986   -0.081005
-0.23978     0.93466   -0.083691
-0.28927     0.90343   -0.086378
-0.33474     0.86659   -0.089065
-0.37555     0.82465   -0.091749
-0.41114      0.7782   -0.094414
-0.44095     0.72782   -0.097027
-0.46448     0.67408   -0.099565
-0.48127      0.6175    -0.10224
-0.49175     0.55886    -0.10614
0.051146    0.033523    0.011469
0.1025    0.072349    0.012194
0.15023     0.11706   0.0093983
0.19261     0.16687   0.0065521
0.22881     0.22129   0.0038182
0.25831     0.27958    0.001127
0.28072     0.34093  -0.0015569
0.29575     0.40449  -0.0042412
0.3032     0.46938  -0.0069265
0.30296      0.5347  -0.0096123
0.29503     0.59953   -0.012298
0.27953     0.66298   -0.014984
0.25667     0.72417    -0.01767
0.22677     0.78224   -0.020356
0.19024     0.83639   -0.023042
0.14759     0.88586   -0.025728
0.09942     0.92997   -0.028414
0.046391      0.9681     -0.0311
-0.010758     0.99973   -0.033786
-0.071231      1.0244   -0.036471
-0.13419      1.0418   -0.039157
-0.19876      1.0517   -0.041843
-0.26404      1.0539   -0.044529
-0.32912      1.0484   -0.047215
-0.39311      1.0352   -0.049901
-0.4551      1.0147   -0.052587
-0.51425     0.98697   -0.055273
-0.56972     0.95249   -0.057959
-0.62075     0.91172   -0.060645
-0.66663     0.86522   -0.063331
-0.70671     0.81365   -0.066017
-0.74045     0.75773   -0.068703
-0.76738     0.69822   -0.071388
-0.78711     0.63596   -0.074066
-0.79936     0.57182   -0.076725
-0.80389     0.50667   -0.079357
-0.80053     0.44136   -0.082019
-0.7893     0.37656   -0.085027
-0.77087     0.31232    -0.08949
0.020332    0.056315   -0.016772
0.038024     0.11787   -0.022982
0.04984     0.18237   -0.026119
0.053981      0.2477   -0.028863
0.050436     0.31295   -0.031545
0.039219      0.3773   -0.034223
0.020497     0.43987   -0.036905
-0.0054642      0.4998   -0.039589
-0.038299     0.55627   -0.042275
-0.077551     0.60847   -0.044961
-0.12267      0.6557   -0.047647
-0.17304     0.69729   -0.050333
-0.22795     0.73266   -0.053019
-0.28664     0.76132   -0.055705
-0.3483     0.78287    -0.05839
-0.41207     0.79702   -0.061076
-0.47706     0.80357   -0.063762
-0.54236     0.80242   -0.066448
-0.60708      0.7936   -0.069134
-0.67031     0.77722    -0.07182
-0.73117     0.75351   -0.074506
-0.78882     0.72281   -0.077192
-0.84246     0.68553   -0.079878
-0.89133      0.6422   -0.082564
-0.93477     0.59342    -0.08525
-0.97217     0.53987   -0.087935
-1.003     0.48229   -0.090621
-1.0268     0.42148   -0.093307
-1.0434     0.35829   -0.095993
-1.0523     0.29359   -0.098679
-1.0536     0.22828    -0.10137
-1.0472     0.16328    -0.10405
-1.0332    0.099489    -0.10673
-1.0118    0.037789    -0.10941
-0.98326   -0.020957    -0.11208
-0.94789   -0.075925    -0.11476
-0.90596    -0.12632    -0.11759
-0.85784     -0.1715    -0.12098
-0.80491    -0.21116    -0.12555
-0.005642    0.056607  -0.0022432
-0.016093     0.11076   -0.005279
-0.032572     0.16669  -0.0084188
-0.055406     0.22066   -0.011199
-0.084445     0.27152   -0.013875
-0.11928     0.31855   -0.016548
-0.15941     0.36115    -0.01923
-0.20428     0.39872   -0.021915
-0.25326     0.43075     -0.0246
-0.30567      0.4568   -0.027287
-0.36077     0.47649   -0.029972
-0.41782     0.48957   -0.032658
-0.476     0.49584   -0.035344
-0.53452     0.49521    -0.03803
-0.59256     0.48771   -0.040716
-0.64932     0.47343   -0.043402
-0.70399     0.45256   -0.046088
-0.75584     0.42541   -0.048774
-0.80412     0.39235    -0.05146
-0.84818     0.35383   -0.054146
-0.88741      0.3104   -0.056832
-0.92124     0.26265   -0.059518
-0.94922     0.21125   -0.062203
-0.97096     0.15691   -0.064889
-0.98616      0.1004   -0.067575
-0.99459    0.042485   -0.070261
-0.99616   -0.016017   -0.072947
-0.99082   -0.074296   -0.075633
-0.97867    -0.13154   -0.078319
-0.95986    -0.18696   -0.081005
-0.93466    -0.23978   -0.083691
-0.90343    -0.28927   -0.086378
-0.86659    -0.33474   -0.089065
-0.82465    -0.37555   -0.091749
-0.7782    -0.41114   -0.094414
-0.72782    -0.44095   -0.097027
-0.67408    -0.46448   -0.099565
-0.6175    -0.48127    -0.10224
-0.55886    -0.49175    -0.10614
-0.033523    0.051146    0.011469
-0.072349      0.1025    0.012194
-0.11706     0.15023   0.0093983
-0.16687     0.19261   0.0065521
-0.22129     0.22881   0.0038182
-0.27958     0.25831    0.001127
-0.34093     0.28072  -0.0015569
-0.40449     0.29575  -0.0042412
-0.46938      0.3032  -0.0069265
-0.5347     0.30296  -0.0096123
-0.59953     0.29503   -0.012298
-0.66298     0.27953   -0.014984
-0.72417     0.25667    -0.01767
-0.78224     0.22677   -0.020356
-0.83639     0.19024   -0.023042
-0.88586     0.14759   -0.025728
-0.92997     0.09942   -0.028414
-0.9681    0.046391     -0.0311
-0.99973   -0.010758   -0.033786
-1.0244   -0.071231   -0.036471
-1.0418    -0.13419   -0.039157
-1.0517    -0.19876   -0.041843
-1.0539    -0.26404   -0.044529
-1.0484    -0.32912   -0.047215
-1.0352    -0.39311   -0.049901
-1.0147     -0.4551   -0.052587
-0.98697    -0.51425   -0.055273
-0.95249    -0.56972   -0.057959
-0.91172    -0.62075   -0.060645
-0.86522    -0.66663   -0.063331
-0.81365    -0.70671   -0.066017
-0.75773    -0.74045   -0.068703
-0.69822    -0.76738   -0.071388
-0.63596    -0.78711   -0.074066
-0.57182    -0.79936   -0.076725
-0.50667    -0.80389   -0.079357
-0.44136    -0.80053   -0.082019
-0.37656     -0.7893   -0.085027
-0.31232    -0.77087    -0.08949
-0.056315    0.020332   -0.016772
-0.11787    0.038024   -0.022982
-0.18237     0.04984   -0.026119
-0.2477    0.053981   -0.028863
-0.31295    0.050436   -0.031545
-0.3773    0.039219   -0.034223
-0.43987    0.020497   -0.036905
-0.4998  -0.0054642   -0.039589
-0.55627   -0.038299   -0.042275
-0.60847   -0.077551   -0.044961
-0.6557    -0.12267   -0.047647
-0.69729    -0.17304   -0.050333
-0.73266    -0.22795   -0.053019
-0.76132    -0.28664   -0.055705
-0.78287     -0.3483    -0.05839
-0.79702    -0.41207   -0.061076
-0.80357    -0.47706   -0.063762
-0.80242    -0.54236   -0.066448
-0.7936    -0.60708   -0.069134
-0.77722    -0.67031    -0.07182
-0.75351    -0.73117   -0.074506
-0.72281    -0.78882   -0.077192
-0.68553    -0.84246   -0.079878
-0.6422    -0.89133   -0.082564
-0.59342    -0.93477    -0.08525
-0.53987    -0.97217   -0.087935
-0.48229      -1.003   -0.090621
-0.42148     -1.0268   -0.093307
-0.35829     -1.0434   -0.095993
-0.29359     -1.0523   -0.098679
-0.22828     -1.0536    -0.10137
-0.16328     -1.0472    -0.10405
-0.099489     -1.0332    -0.10673
-0.037789     -1.0118    -0.10941
0.020957    -0.98326    -0.11208
0.075925    -0.94789    -0.11476
0.12632    -0.90596    -0.11759
0.1715    -0.85784    -0.12098
0.21116    -0.80491    -0.12555
-0.056607   -0.005642  -0.0022432
-0.11076   -0.016093   -0.005279
-0.16669   -0.032572  -0.0084188
-0.22066   -0.055406   -0.011199
-0.27152   -0.084445   -0.013875
-0.31855    -0.11928   -0.016548
-0.36115    -0.15941    -0.01923
-0.39872    -0.20428   -0.021915
-0.43075    -0.25326     -0.0246
-0.4568    -0.30567   -0.027287
-0.47649    -0.36077   -0.029972
-0.48957    -0.41782   -0.032658
-0.49584      -0.476   -0.035344
-0.49521    -0.53452    -0.03803
-0.48771    -0.59256   -0.040716
-0.47343    -0.64932   -0.043402
-0.45256    -0.70399   -0.046088
-0.42541    -0.75584   -0.048774
-0.39235    -0.80412    -0.05146
-0.35383    -0.84818   -0.054146
-0.3104    -0.88741   -0.056832
-0.26265    -0.92124   -0.059518
-0.21125    -0.94922   -0.062203
-0.15691    -0.97096   -0.064889
-0.1004    -0.98616   -0.067575
-0.042485    -0.99459   -0.070261
0.016017    -0.99616   -0.072947
0.074296    -0.99082   -0.075633
0.13154    -0.97867   -0.078319
0.18696    -0.95986   -0.081005
0.23978    -0.93466   -0.083691
0.28927    -0.90343   -0.086378
0.33474    -0.86659   -0.089065
0.37555    -0.82465   -0.091749
0.41114     -0.7782   -0.094414
0.44095    -0.72782   -0.097027
0.46448    -0.67408   -0.099565
0.48127     -0.6175    -0.10224
0.49175    -0.55886    -0.10614
-0.051146   -0.033523    0.011469
-0.1025   -0.072349    0.012194
-0.15023    -0.11706   0.0093983
-0.19261    -0.16687   0.0065521
-0.22881    -0.22129   0.0038182
-0.25831    -0.27958    0.001127
-0.28072    -0.34093  -0.0015569
-0.29575    -0.40449  -0.0042412
-0.3032    -0.46938  -0.0069265
-0.30296     -0.5347  -0.0096123
-0.29503    -0.59953   -0.012298
-0.27953    -0.66298   -0.014984
-0.25667    -0.72417    -0.01767
-0.22677    -0.78224   -0.020356
-0.19024    -0.83639   -0.023042
-0.14759    -0.88586   -0.025728
-0.09942    -0.92997   -0.028414
-0.046391     -0.9681     -0.0311
0.010758    -0.99973   -0.033786
0.071231     -1.0244   -0.036471
0.13419     -1.0418   -0.039157
0.19876     -1.0517   -0.041843
0.26404     -1.0539   -0.044529
0.32912     -1.0484   -0.047215
0.39311     -1.0352   -0.049901
0.4551     -1.0147   -0.052587
0.51425    -0.98697   -0.055273
0.56972    -0.95249   -0.057959
0.62075    -0.91172   -0.060645
0.66663    -0.86522   -0.063331
0.70671    -0.81365   -0.066017
0.74045    -0.75773   -0.068703
0.76738    -0.69822   -0.071388
0.78711    -0.63596   -0.074066
0.79936    -0.57182   -0.076725
0.80389    -0.50667   -0.079357
0.80053    -0.44136   -0.082019
0.7893    -0.37656   -0.085027
0.77087    -0.31232    -0.08949
-0.020332   -0.056315   -0.016772
-0.038024    -0.11787   -0.022982
-0.04984    -0.18237   -0.026119
-0.053981     -0.2477   -0.028863
-0.050436    -0.31295   -0.031545
-0.039219     -0.3773   -0.034223
-0.020497    -0.43987   -0.036905
0.0054642     -0.4998   -0.039589
0.038299    -0.55627   -0.042275
0.077551    -0.60847   -0.044961
0.12267     -0.6557   -0.047647
0.17304    -0.69729   -0.050333
0.22795    -0.73266   -0.053019
0.28664    -0.76132   -0.055705
0.3483    -0.78287    -0.05839
0.41207    -0.79702   -0.061076
0.47706    -0.80357   -0.063762
0.54236    -0.80242   -0.066448
0.60708     -0.7936   -0.069134
0.67031    -0.77722    -0.07182
0.73117    -0.75351   -0.074506
0.78882    -0.72281   -0.077192
0.84246    -0.68553   -0.079878
0.89133     -0.6422   -0.082564
0.93477    -0.59342    -0.08525
0.97217    -0.53987   -0.087935
1.003    -0.48229   -0.090621
1.0268    -0.42148   -0.093307
1.0434    -0.35829   -0.095993
1.0523    -0.29359   -0.098679
1.0536    -0.22828    -0.10137
1.0472    -0.16328    -0.10405
1.0332   -0.099489    -0.10673
1.0118   -0.037789    -0.10941
0.98326    0.020957    -0.11208
0.94789    0.075925    -0.11476
0.90596     0.12632    -0.11759
0.85784      0.1715    -0.12098
0.80491     0.21116    -0.12555
0.005642   -0.056607  -0.0022432
0.016093    -0.11076   -0.005279
0.032572    -0.16669  -0.0084188
0.055406    -0.22066   -0.011199
0.084445    -0.27152   -0.013875
0.11928    -0.31855   -0.016548
0.15941    -0.36115    -0.01923
0.20428    -0.39872   -0.021915
0.25326    -0.43075     -0.0246
0.30567     -0.4568   -0.027287
0.36077    -0.47649   -0.029972
0.41782    -0.48957   -0.032658
0.476    -0.49584   -0.035344
0.53452    -0.49521    -0.03803
0.59256    -0.48771   -0.040716
0.64932    -0.47343   -0.043402
0.70399    -0.45256   -0.046088
0.75584    -0.42541   -0.048774
0.80412    -0.39235    -0.05146
0.84818    -0.35383   -0.054146
0.88741     -0.3104   -0.056832
0.92124    -0.26265   -0.059518
0.94922    -0.21125   -0.062203
0.97096    -0.15691   -0.064889
0.98616     -0.1004   -0.067575
0.99459   -0.042485   -0.070261
0.99616    0.016017   -0.072947
0.99082    0.074296   -0.075633
0.97867     0.13154   -0.078319
0.95986     0.18696   -0.081005
0.93466     0.23978   -0.083691
0.90343     0.28927   -0.086378
0.86659     0.33474   -0.089065
0.82465     0.37555   -0.091749
0.7782     0.41114   -0.094414
0.72782     0.44095   -0.097027
0.67408     0.46448   -0.099565
0.6175     0.48127    -0.10224
0.55886     0.49175    -0.10614
0.033523   -0.051146    0.011469
0.072349     -0.1025    0.012194
0.11706    -0.15023   0.0093983
0.16687    -0.19261   0.0065521
0.22129    -0.22881   0.0038182
0.27958    -0.25831    0.001127
0.34093    -0.28072  -0.0015569
0.40449    -0.29575  -0.0042412
0.46938     -0.3032  -0.0069265