# vtk DataFile Version 3.0
VTK Output
ASCII
DATASET UNSTRUCTURED_GRID

POINTS 1025 float
-0.5        -0.5           0
0.5        -0.5           0
0.5         0.5           0
-0.5         0.5           0
-0.5         -0.5           10
0.5         -0.5           10
0.5          0.5           10
-0.5          0.5           10
-0.25        -0.5           0
-1.3751e-12        -0.5           0
0.25        -0.5           0
0.5       -0.25           0
0.5 -1.3751e-12           0
0.5        0.25           0
0.25         0.5           0
1.3751e-12         0.5           0
-0.25         0.5           0
-0.5        0.25           0
-0.5  1.3751e-12           0
-0.5       -0.25           0
-0.25         -0.5           10
-1.37512e-12         -0.5           10
0.25         -0.5           10
0.5        -0.25           10
0.5 -1.37512e-12           10
0.5         0.25           10
0.25          0.5           10
1.37512e-12          0.5           10
-0.25          0.5           10
-0.5         0.25           10
-0.5  1.37512e-12           10
-0.5        -0.25           10
-0.5        -0.5        0.25
-0.5        -0.5         0.5
-0.5        -0.5        0.75
-0.5        -0.5           1
-0.5        -0.5        1.25
-0.5        -0.5         1.5
-0.5        -0.5        1.75
-0.5        -0.5           2
-0.5        -0.5        2.25
-0.5        -0.5         2.5
-0.5        -0.5        2.75
-0.5        -0.5           3
-0.5        -0.5        3.25
-0.5        -0.5         3.5
-0.5        -0.5        3.75
-0.5        -0.5           4
-0.5        -0.5        4.25
-0.5        -0.5         4.5
-0.5        -0.5        4.75
-0.5        -0.5           5
-0.5        -0.5        5.25
-0.5        -0.5         5.5
-0.5        -0.5        5.75
-0.5        -0.5           6
-0.5        -0.5        6.25
-0.5        -0.5         6.5
-0.5        -0.5        6.75
-0.5        -0.5           7
-0.5        -0.5        7.25
-0.5        -0.5         7.5
-0.5        -0.5        7.75
-0.5        -0.5           8
-0.5        -0.5        8.25
-0.5        -0.5         8.5
-0.5        -0.5        8.75
-0.5        -0.5           9
-0.5        -0.5        9.25
-0.5        -0.5         9.5
-0.5        -0.5        9.75
0.5        -0.5        0.25
0.5        -0.5         0.5
0.5        -0.5        0.75
0.5        -0.5           1
0.5        -0.5        1.25
0.5        -0.5         1.5
0.5        -0.5        1.75
0.5        -0.5           2
0.5        -0.5        2.25
0.5        -0.5         2.5
0.5        -0.5        2.75
0.5        -0.5           3
0.5        -0.5        3.25
0.5        -0.5         3.5
0.5        -0.5        3.75
0.5        -0.5           4
0.5        -0.5        4.25
0.5        -0.5         4.5
0.5        -0.5        4.75
0.5        -0.5           5
0.5        -0.5        5.25
0.5        -0.5         5.5
0.5        -0.5        5.75
0.5        -0.5           6
0.5        -0.5        6.25
0.5        -0.5         6.5
0.5        -0.5        6.75
0.5        -0.5           7
0.5        -0.5        7.25
0.5        -0.5         7.5
0.5        -0.5        7.75
0.5        -0.5           8
0.5        -0.5        8.25
0.5        -0.5         8.5
0.5        -0.5        8.75
0.5        -0.5           9
0.5        -0.5        9.25
0.5        -0.5         9.5
0.5        -0.5        9.75
0.5         0.5        0.25
0.5         0.5         0.5
0.5         0.5        0.75
0.5         0.5           1
0.5         0.5        1.25
0.5         0.5         1.5
0.5         0.5        1.75
0.5         0.5           2
0.5         0.5        2.25
0.5         0.5         2.5
0.5         0.5        2.75
0.5         0.5           3
0.5         0.5        3.25
0.5         0.5         3.5
0.5         0.5        3.75
0.5         0.5           4
0.5         0.5        4.25
0.5         0.5         4.5
0.5         0.5        4.75
0.5         0.5           5
0.5         0.5        5.25
0.5         0.5         5.5
0.5         0.5        5.75
0.5         0.5           6
0.5         0.5        6.25
0.5         0.5         6.5
0.5         0.5        6.75
0.5         0.5           7
0.5         0.5        7.25
0.5         0.5         7.5
0.5         0.5        7.75
0.5         0.5           8
0.5         0.5        8.25
0.5         0.5         8.5
0.5         0.5        8.75
0.5         0.5           9
0.5         0.5        9.25
0.5         0.5         9.5
0.5         0.5        9.75
-0.5         0.5        0.25
-0.5         0.5         0.5
-0.5         0.5        0.75
-0.5         0.5           1
-0.5         0.5        1.25
-0.5         0.5         1.5
-0.5         0.5        1.75
-0.5         0.5           2
-0.5         0.5        2.25
-0.5         0.5         2.5
-0.5         0.5        2.75
-0.5         0.5           3
-0.5         0.5        3.25
-0.5         0.5         3.5
-0.5         0.5        3.75
-0.5         0.5           4
-0.5         0.5        4.25
-0.5         0.5         4.5
-0.5         0.5        4.75
-0.5         0.5           5
-0.5         0.5        5.25
-0.5         0.5         5.5
-0.5         0.5        5.75
-0.5         0.5           6
-0.5         0.5        6.25
-0.5         0.5         6.5
-0.5         0.5        6.75
-0.5         0.5           7
-0.5         0.5        7.25
-0.5         0.5         7.5
-0.5         0.5        7.75
-0.5         0.5           8
-0.5         0.5        8.25
-0.5         0.5         8.5
-0.5         0.5        8.75
-0.5         0.5           9
-0.5         0.5        9.25
-0.5         0.5         9.5
-0.5         0.5        9.75
-0.25       -0.25           0
-0.25  6.8756e-13           0
-0.25        0.25           0
-6.8756e-13       -0.25           0
-3.7821e-24           0           0
6.8756e-13        0.25           0
0.25       -0.25           0
0.25 -6.8756e-13           0
0.25        0.25           0
-0.25        -0.5        0.25
-0.25        -0.5         0.5
-0.25        -0.5        0.75
-0.25        -0.5           1
-0.25        -0.5        1.25
-0.25        -0.5         1.5
-0.25        -0.5        1.75
-0.25        -0.5           2
-0.25        -0.5        2.25
-0.25        -0.5         2.5
-0.25        -0.5        2.75
-0.25        -0.5           3
-0.25        -0.5        3.25
-0.25        -0.5         3.5
-0.25        -0.5        3.75
-0.25        -0.5           4
-0.25        -0.5        4.25
-0.25        -0.5         4.5
-0.25        -0.5        4.75
-0.25        -0.5           5
-0.25        -0.5        5.25
-0.25        -0.5         5.5
-0.25        -0.5        5.75
-0.25        -0.5           6
-0.25        -0.5        6.25
-0.25        -0.5         6.5
-0.25        -0.5        6.75
-0.25        -0.5           7
-0.25        -0.5        7.25
-0.25        -0.5         7.5
-0.25        -0.5        7.75
-0.25        -0.5           8
-0.25        -0.5        8.25
-0.25        -0.5         8.5
-0.25        -0.5        8.75
-0.25        -0.5           9
-0.25        -0.5        9.25
-0.25        -0.5         9.5
-0.25        -0.5        9.75
-1.3751e-12        -0.5        0.25
-1.3751e-12        -0.5         0.5
-1.3751e-12        -0.5        0.75
-1.3751e-12        -0.5           1
-1.3751e-12        -0.5        1.25
-1.3751e-12        -0.5         1.5
-1.3751e-12        -0.5        1.75
-1.3751e-12        -0.5           2
-1.3751e-12        -0.5        2.25
-1.3751e-12        -0.5         2.5
-1.3751e-12        -0.5        2.75
-1.3751e-12        -0.5           3
-1.3751e-12        -0.5        3.25
-1.3751e-12        -0.5         3.5
-1.3751e-12        -0.5        3.75
-1.3751e-12        -0.5           4
-1.3751e-12        -0.5        4.25
-1.3751e-12        -0.5         4.5
-1.3751e-12        -0.5        4.75
-1.3751e-12        -0.5           5
-1.3751e-12        -0.5        5.25
-1.3751e-12        -0.5         5.5
-1.3751e-12        -0.5        5.75
-1.3751e-12        -0.5           6
-1.3751e-12        -0.5        6.25
-1.3751e-12        -0.5         6.5
-1.3751e-12        -0.5        6.75
-1.3751e-12        -0.5           7
-1.3751e-12        -0.5        7.25
-1.3751e-12        -0.5         7.5
-1.3751e-12        -0.5        7.75
-1.3751e-12        -0.5           8
-1.3751e-12        -0.5        8.25
-1.3751e-12        -0.5         8.5
-1.3751e-12        -0.5        8.75
-1.3751e-12        -0.5           9
-1.3751e-12        -0.5        9.25
-1.3751e-12        -0.5         9.5
-1.3751e-12        -0.5        9.75
0.25        -0.5        0.25
0.25        -0.5         0.5
0.25        -0.5        0.75
0.25        -0.5           1
0.25        -0.5        1.25
0.25        -0.5         1.5
0.25        -0.5        1.75
0.25        -0.5           2
0.25        -0.5        2.25
0.25        -0.5         2.5
0.25        -0.5        2.75
0.25        -0.5           3
0.25        -0.5        3.25
0.25        -0.5         3.5
0.25        -0.5        3.75
0.25        -0.5           4
0.25        -0.5        4.25
0.25        -0.5         4.5
0.25        -0.5        4.75
0.25        -0.5           5
0.25        -0.5        5.25
0.25        -0.5         5.5
0.25        -0.5        5.75
0.25        -0.5           6
0.25        -0.5        6.25
0.25        -0.5         6.5
0.25        -0.5        6.75
0.25        -0.5           7
0.25        -0.5        7.25
0.25        -0.5         7.5
0.25        -0.5        7.75
0.25        -0.5           8
0.25        -0.5        8.25
0.25        -0.5         8.5
0.25        -0.5        8.75
0.25        -0.5           9
0.25        -0.5        9.25
0.25        -0.5         9.5
0.25        -0.5        9.75
0.5       -0.25        0.25
0.5       -0.25         0.5
0.5       -0.25        0.75
0.5       -0.25           1
0.5       -0.25        1.25
0.5       -0.25         1.5
0.5       -0.25        1.75
0.5       -0.25           2
0.5       -0.25        2.25
0.5       -0.25         2.5
0.5       -0.25        2.75
0.5       -0.25           3
0.5       -0.25        3.25
0.5       -0.25         3.5
0.5       -0.25        3.75
0.5       -0.25           4
0.5       -0.25        4.25
[...]
POINT_DATA 1025
VECTORS displacement double
0  0  0
0  0  0
0  0  0
0  0  0
0.7706      1.1533    -0.50024
-1.1533      0.7706    -0.50024
-0.7706     -1.1533    -0.50024
1.1533     -0.7706    -0.50024
0  0  0
0  0  0
0  0  0
0  0  0
0  0  0
0  0  0
0  0  0
0  0  0
0  0  0
0  0  0
0  0  0
0  0  0
0.28963      1.0576    -0.51395
-0.19134     0.96194    -0.46567
-0.67231     0.86627    -0.43204
-1.0576     0.28963    -0.51395
-0.96194    -0.19134    -0.46567
-0.86627    -0.67231    -0.43204
-0.28963     -1.0576    -0.51395
0.19134    -0.96194    -0.46567
0.67231    -0.86627    -0.43204
1.0576    -0.28963    -0.51395
0.96194     0.19134    -0.46567
0.86627     0.67231    -0.43204
0.12326   -0.072299  -0.0033055
0.27479    -0.14227   -0.018128
0.43943    -0.17604   -0.031986
0.6068    -0.17027   -0.044344
0.76697    -0.12435   -0.055641
0.91067   -0.041016   -0.066486
1.0297     0.07468   -0.077256
1.117      0.2158   -0.088059
1.1675     0.37389   -0.098894
1.1781     0.53953    -0.10974
1.1483     0.70281    -0.12059
1.0798     0.85398    -0.13144
0.97659     0.98402    -0.14229
0.84498      1.0852    -0.15314
0.69277      1.1513    -0.16399
0.52905      1.1787    -0.17484
0.36359      1.1654    -0.18569
0.20628      1.1125    -0.19653
0.066505       1.023    -0.20738
-0.047386     0.90222    -0.21823
-0.12859     0.75746    -0.22908
-0.17227     0.59733    -0.23993
-0.1758     0.43138    -0.25078
-0.13899     0.26953    -0.26163
-0.064016     0.12145    -0.27247
0.04463  -0.0040381    -0.28332
0.18047   -0.099428    -0.29417
0.33538    -0.15903    -0.30502
0.50013    -0.17927    -0.31587
0.66487    -0.15896    -0.32672
0.81977   -0.099306    -0.33759
0.95558  -0.0038917    -0.34845
1.0642     0.12153    -0.35926
1.1391      0.2694    -0.36987
1.1757     0.43097    -0.38016
1.1712     0.59712    -0.39041
1.1239     0.75922    -0.40262
1.0343     0.90923    -0.42212
0.90895      1.0399    -0.45439
0.072299     0.12326  -0.0033055
0.14227     0.27479   -0.018128
0.17604     0.43943   -0.031986
0.17027      0.6068   -0.044344
0.12435     0.76697   -0.055641
0.041016     0.91067   -0.066486
-0.07468      1.0297   -0.077256
-0.2158       1.117   -0.088059
-0.37389      1.1675   -0.098894
-0.53953      1.1781    -0.10974
-0.70281      1.1483    -0.12059
-0.85398      1.0798    -0.13144
-0.98402     0.97659    -0.14229
-1.0852     0.84498    -0.15314
-1.1513     0.69277    -0.16399
-1.1787     0.52905    -0.17484
-1.1654     0.36359    -0.18569
-1.1125     0.20628    -0.19653
-1.023    0.066505    -0.20738
-0.90222   -0.047386    -0.21823
-0.75746    -0.12859    -0.22908
-0.59733    -0.17227    -0.23993
-0.43138     -0.1758    -0.25078
-0.26953    -0.13899    -0.26163
-0.12145   -0.064016    -0.27247
0.0040381     0.04463    -0.28332
0.099428     0.18047    -0.29417
0.15903     0.33538    -0.30502
0.17927     0.50013    -0.31587
0.15896     0.66487    -0.32672
0.099306     0.81977    -0.33759
0.0038917     0.95558    -0.34845
-0.12153      1.0642    -0.35926
-0.2694      1.1391    -0.36987
-0.43097      1.1757    -0.38016
-0.59712      1.1712    -0.39041
-0.75922      1.1239    -0.40262
-0.90923      1.0343    -0.42212
-1.0399     0.90895    -0.45439
-0.12326    0.072299  -0.0033055
-0.27479     0.14227   -0.018128
-0.43943     0.17604   -0.031986
-0.6068     0.17027   -0.044344
-0.76697     0.12435   -0.055641
-0.91067    0.041016   -0.066486
-1.0297    -0.07468   -0.077256
-1.117     -0.2158   -0.088059
-1.1675    -0.37389   -0.098894
-1.1781    -0.53953    -0.10974
-1.1483    -0.70281    -0.12059
-1.0798    -0.85398    -0.13144
-0.97659    -0.98402    -0.14229
-0.84498     -1.0852    -0.15314
-0.69277     -1.1513    -0.16399
-0.52905     -1.1787    -0.17484
-0.36359     -1.1654    -0.18569
-0.20628     -1.1125    -0.19653
-0.066505      -1.023    -0.20738
0.047386    -0.90222    -0.21823
0.12859    -0.75746    -0.22908
0.17227    -0.59733    -0.23993
0.1758    -0.43138    -0.25078
0.13899    -0.26953    -0.26163
0.064016    -0.12145    -0.27247
-0.04463   0.0040381    -0.28332
-0.18047    0.099428    -0.29417
-0.33538     0.15903    -0.30502
-0.50013     0.17927    -0.31587
-0.66487     0.15896    -0.32672
-0.81977    0.099306    -0.33759
-0.95558   0.0038917    -0.34845
-1.0642    -0.12153    -0.35926
-1.1391     -0.2694    -0.36987
-1.1757    -0.43097    -0.38016
-1.1712    -0.59712    -0.39041
-1.1239    -0.75922    -0.40262
-1.0343    -0.90923    -0.42212
-0.90895     -1.0399    -0.45439
-0.072299    -0.12326  -0.0033055
-0.14227    -0.27479   -0.018128
-0.17604    -0.43943   -0.031986
-0.17027     -0.6068   -0.044344
-0.12435    -0.76697   -0.055641
-0.041016    -0.91067   -0.066486
0.07468     -1.0297   -0.077256
0.2158      -1.117   -0.088059
0.37389     -1.1675   -0.098894
0.53953     -1.1781    -0.10974
0.70281     -1.1483    -0.12059
0.85398     -1.0798    -0.13144
0.98402    -0.97659    -0.14229
1.0852    -0.84498    -0.15314
1.1513    -0.69277    -0.16399
1.1787    -0.52905    -0.17484
1.1654    -0.36359    -0.18569
1.1125    -0.20628    -0.19653
1.023   -0.066505    -0.20738
0.90222    0.047386    -0.21823
0.75746     0.12859    -0.22908
0.59733     0.17227    -0.23993
0.43138      0.1758    -0.25078
0.26953     0.13899    -0.26163
0.12145    0.064016    -0.27247
-0.0040381    -0.04463    -0.28332
-0.099428    -0.18047    -0.29417
-0.15903    -0.33538    -0.30502
-0.17927    -0.50013    -0.31587
-0.15896    -0.66487    -0.32672
-0.099306    -0.81977    -0.33759
-0.0038917    -0.95558    -0.34845
0.12153     -1.0642    -0.35926
0.2694     -1.1391    -0.36987
0.43097     -1.1757    -0.38016
0.59712     -1.1712    -0.39041
0.75922     -1.1239    -0.40262
0.90923     -1.0343    -0.42212
1.0399    -0.90895    -0.45439
0  0  0
0  0  0
0  0  0
0  0  0
0  0  0
0  0  0
0  0  0
0  0  0
0  0  0
0.11226   -0.026346   -0.037759
0.23968   -0.037683   -0.056686
0.37156   -0.022818     -0.0701
0.49595    0.022814   -0.081627
0.60491    0.096809   -0.092475
0.69227     0.19489    -0.10322
0.75309     0.31121    -0.11401
0.78385     0.43883    -0.12485
0.78275     0.57011    -0.13569
0.74983     0.69722    -0.14654
0.68708     0.81255    -0.15739
0.59823     0.90922    -0.16824
0.48859     0.98146    -0.17909
0.3647      1.0249    -0.18994
0.23397      1.0371    -0.20079
0.10419      1.0172    -0.21164
-0.016885     0.96637    -0.22249
-0.12202     0.88772    -0.23333
-0.20495     0.78592    -0.24418
-0.26071     0.66705    -0.25503
-0.28597      0.5382    -0.26588
-0.27924     0.40708    -0.27673
-0.2409      0.2815    -0.28758
-0.17326     0.16897    -0.29843
-0.080337    0.076202    -0.30927
0.032305   0.0087403    -0.32012
0.15795   -0.029389    -0.33097
0.28908   -0.035909    -0.34182
0.41789   -0.010429    -0.35267
0.53667    0.045532    -0.36352
0.63833     0.12863    -0.37438
0.71683     0.23387    -0.38523
0.76749     0.35495    -0.39603
0.78735     0.48458    -0.40674
0.7751     0.61508    -0.41735
0.7306     0.73879    -0.42819
0.65427     0.84807     -0.4406
0.54784     0.93568     -0.4576
0.42158     0.99701    -0.47988
0.10723    0.021252  -0.0071459
0.21096    0.063294    -0.01978
0.31055     0.12874   -0.033264
0.39233     0.21571   -0.044874
0.45011     0.31961   -0.055705
0.48058      0.4342   -0.066426
0.48221     0.55268   -0.077209
0.45504     0.66803   -0.088042
0.4007     0.77335   -0.098892
0.32245     0.86237    -0.10974
0.22494     0.92975    -0.12059
0.114     0.97147    -0.13144
-0.0037492     0.98504    -0.14229
-0.12127     0.96965    -0.15314
-0.23155     0.92622    -0.16399
-0.32801     0.85734    -0.17484
-0.40488     0.76712    -0.18569
-0.45757     0.66096    -0.19653
-0.48295     0.54518    -0.20738
-0.47949      0.4267    -0.21823
-0.4474     0.31261    -0.22908
-0.38859      0.2097    -0.23993
-0.30659     0.12412    -0.25078
-0.20627    0.060988    -0.26163
-0.093646    0.024068    -0.27248
0.024574    0.015565    -0.28332
0.14133    0.035987    -0.29417
0.24964    0.084116    -0.30502
0.34305     0.15708    -0.31587
0.41597     0.25052    -0.32672
0.46406     0.35886    -0.33757
0.48446     0.47562    -0.34845
0.47597      0.5938    -0.35932
0.43918     0.70633    -0.37014
0.37626     0.80645    -0.38069
0.29047     0.88803    -0.39065
0.18541     0.94548    -0.40013
0.064493     0.97402    -0.41193
-0.06531      0.9725    -0.43245
0.091684    0.077441    0.018669
0.1769     0.17333    0.015612
0.24246     0.28796    0.004306
0.27981     0.41479  -0.0074502
0.2851     0.54641   -0.018688
0.25803     0.67498   -0.029607
0.20047     0.79298   -0.040434
0.11599     0.89345   -0.051259
0.0096454     0.97044   -0.062098
-0.1122      1.0194   -0.072944
-0.24227      1.0373   -0.083793
-0.3728      1.0231   -0.094643
-0.496     0.97771    -0.10549
-0.60452     0.90379    -0.11634
-0.69186     0.80576    -0.12719
-0.75282     0.68947    -0.13804
-0.78376     0.56187    -0.14889
-0.78283     0.43057    -0.15973
-0.75008     0.30342    -0.17058
-0.68748     0.18801    -0.18143
-0.59875    0.091223    -0.19228
-0.4892    0.018847    -0.20313
-0.36537   -0.024801    -0.21398
-0.23465   -0.037114    -0.22483
-0.10485   -0.017356    -0.23567
0.01629    0.033292    -0.24652
0.12153     0.11181    -0.25737
0.20458      0.2135    -0.26822
0.26049      0.3323    -0.27907
0.28592     0.46112    -0.28992
0.27935     0.59226    -0.30078
0.24119      0.7179    -0.31164
0.17376     0.83051     -0.3225
0.081135     0.92335     -0.3333
-0.031151     0.99077    -0.34386
-0.15674      1.0284    -0.35402
-0.28938       1.033    -0.36421
-0.42358      1.0028    -0.37681
-0.55567      0.9394    -0.39983
0.026346     0.11226   -0.037759
0.037683     0.23968   -0.056686
0.022818     0.37156     -0.0701
-0.022814     0.49595   -0.081627
-0.096809     0.60491   -0.092475
-0.19489     0.69227    -0.10322
-0.31121     0.75309    -0.11401
-0.43883     0.78385    -0.12485
-0.57011     0.78275    -0.13569
-0.69722     0.74983    -0.14654
-0.81255     0.68708    -0.15739
-0.90922     0.59823    -0.16824
-0.98146     0.48859    -0.17909
-1.0249      0.3647    -0.18994
-1.0371     0.23397    -0.20079
-1.0172     0.10419    -0.21164
-0.96637   -0.016885    -0.22249
-0.88772    -0.12202    -0.23333
-0.78592    -0.20495    -0.24418
-0.66705    -0.26071    -0.25503
-0.5382    -0.28597    -0.26588
-0.40708    -0.27924    -0.27673
-0.2815     -0.2409    -0.28758
-0.16897    -0.17326    -0.29843
-0.076202   -0.080337    -0.30927
-0.0087403    0.032305    -0.32012
0.029389     0.15795    -0.33097
0.035909     0.28908    -0.34182
0.010429     0.41789    -0.35267
-0.045532     0.53667    -0.36352
-0.12863     0.63833    -0.37438
-0.23387     0.71683    -0.38523
-0.35495     0.76749    -0.39603
-0.48458     0.78735    -0.40674
-0.61508      0.7751    -0.41735
-0.73879      0.7306    -0.42819
-0.84807     0.65427     -0.4406
-0.93568     0.54784     -0.4576
-0.99701     0.42158    -0.47988
-0.021252     0.10723  -0.0071459
-0.063294     0.21096    -0.01978
-0.12874     0.31055   -0.033264
-0.21571     0.39233   -0.044874
-0.31961     0.45011   -0.055705
-0.4342     0.48058   -0.066426
-0.55268     0.48221   -0.077209
-0.66803     0.45504   -0.088042
-0.77335      0.4007   -0.098892
-0.86237     0.32245    -0.10974
-0.92975     0.22494    -0.12059
-0.97147       0.114    -0.13144
-0.98504  -0.0037492    -0.14229
-0.96965    -0.12127    -0.15314
-0.92622    -0.23155    -0.16399
-0.85734    -0.32801    -0.17484
-0.76712    -0.40488    -0.18569
-0.66096    -0.45757    -0.19653
-0.54518    -0.48295    -0.20738
-0.4267    -0.47949    -0.21823
-0.31261     -0.4474    -0.22908
-0.2097    -0.38859    -0.23993
-0.12412    -0.30659    -0.25078
-0.060988    -0.20627    -0.26163
-0.024068   -0.093646    -0.27248
-0.015565    0.024574    -0.28332
-0.035987     0.14133    -0.29417
-0.084116     0.24964    -0.30502
-0.15708     0.34305    -0.31587
-0.25052     0.41597    -0.32672
-0.35886     0.46406    -0.33757
-0.47562     0.48446    -0.34845
-0.5938     0.47597    -0.35932
-0.70633     0.43918    -0.37014
-0.80645     0.37626    -0.38069
-0.88803     0.29047    -0.39065
-0.94548     0.18541    -0.40013
-0.97402    0.064493    -0.41193
-0.9725    -0.06531    -0.43245
-0.077441    0.091684    0.018669
-0.17333      0.1769    0.015612
-0.28796     0.24246    0.004306
-0.41479     0.27981  -0.0074502
-0.54641      0.2851   -0.018688
-0.67498     0.25803   -0.029607
-0.79298     0.20047   -0.040434
-0.89345     0.11599   -0.051259
-0.97044   0.0096454   -0.062098
-1.0194     -0.1122   -0.072944
-1.0373    -0.24227   -0.083793
-1.0231     -0.3728   -0.094643
-0.97771      -0.496    -0.10549
-0.90379    -0.60452    -0.11634
-0.80576    -0.69186    -0.12719
-0.68947    -0.75282    -0.13804
-0.56187    -0.78376    -0.14889
-0.43057    -0.78283    -0.15973
-0.30342    -0.75008    -0.17058
-0.18801    -0.68748    -0.18143
-0.091223    -0.59875    -0.19228
-0.018847     -0.4892    -0.20313
0.024801    -0.36537    -0.21398
0.037114    -0.23465    -0.22483
0.017356    -0.10485    -0.23567
-0.033292     0.01629    -0.24652
-0.11181     0.12153    -0.25737
-0.2135     0.20458    -0.26822
-0.3323     0.26049    -0.27907
-0.46112     0.28592    -0.28992
-0.59226     0.27935    -0.30078
-0.7179     0.24119    -0.31164
-0.83051     0.17376     -0.3225
-0.92335    0.081135     -0.3333
-0.99077   -0.031151    -0.34386
-1.0284    -0.15674    -0.35402
-1.033    -0.28938    -0.36421
-1.0028    -0.42358    -0.37681
-0.9394    -0.55567    -0.39983
-0.11226    0.026346   -0.037759
-0.23968    0.037683   -0.056686
-0.37156    0.022818     -0.0701
-0.49595   -0.022814   -0.081627
-0.60491   -0.096809   -0.092475
-0.69227    -0.19489    -0.10322
-0.75309    -0.31121    -0.11401
-0.78385    -0.43883    -0.12485
-0.78275    -0.57011    -0.13569
-0.74983    -0.69722    -0.14654
-0.68708    -0.81255    -0.15739
-0.59823    -0.90922    -0.16824
-0.48859    -0.98146    -0.17909
-0.3647     -1.0249    -0.18994
-0.23397     -1.0371    -0.20079
-0.10419     -1.0172    -0.21164
0.016885    -0.96637    -0.22249
0.12202    -0.88772    -0.23333
0.20495    -0.78592    -0.24418
0.26071    -0.66705    -0.25503
0.28597     -0.5382    -0.26588
0.27924    -0.40708    -0.27673
0.2409     -0.2815    -0.28758
0.17326    -0.16897    -0.29843
0.080337   -0.076202    -0.30927
-0.032305  -0.0087403    -0.32012
-0.15795    0.029389    -0.33097
-0.28908    0.035909    -0.34182
-0.41789    0.010429    -0.35267
-0.53667   -0.045532    -0.36352
-0.63833    -0.12863    -0.37438
-0.71683    -0.23387    -0.38523
-0.76749    -0.35495    -0.39603
-0.78735    -0.48458    -0.40674
-0.7751    -0.61508    -0.41735
-0.7306    -0.73879    -0.42819
-0.65427    -0.84807     -0.4406
-0.54784    -0.93568     -0.4576
-0.42158    -0.99701    -0.47988
-0.10723   -0.021252  -0.0071459
-0.21096   -0.063294    -0.01978
-0.31055    -0.12874   -0.033264
-0.39233    -0.21571   -0.044874
-0.45011    -0.31961   -0.055705
-0.48058     -0.4342   -0.066426
-0.48221    -0.55268   -0.077209
-0.45504    -0.66803   -0.088042
-0.4007    -0.77335   -0.098892
-0.32245    -0.86237    -0.10974
-0.22494    -0.92975    -0.12059
-0.114    -0.97147    -0.13144
0.0037492    -0.98504    -0.14229
0.12127    -0.96965    -0.15314
0.23155    -0.92622    -0.16399
0.32801    -0.85734    -0.17484
0.40488    -0.76712    -0.18569
0.45757    -0.66096    -0.19653
0.48295    -0.54518    -0.20738
0.47949     -0.4267    -0.21823
0.4474    -0.31261    -0.22908
0.38859     -0.2097    -0.23993
0.30659    -0.12412    -0.25078
0.20627   -0.060988    -0.26163
0.093646   -0.024068    -0.27248
-0.024574   -0.015565    -0.28332
-0.14133   -0.035987    -0.29417
-0.24964   -0.084116    -0.30502
-0.34305    -0.15708    -0.31587
-0.41597    -0.25052    -0.32672
-0.46406    -0.35886    -0.33757
-0.48446    -0.47562    -0.34845
-0.47597     -0.5938    -0.35932
-0.43918    -0.70633    -0.37014
-0.37626    -0.80645    -0.38069
-0.29047    -0.88803    -0.39065
-0.18541    -0.94548    -0.40013
-0.064493    -0.97402    -0.41193
0.06531     -0.9725    -0.43245
-0.091684   -0.077441    0.018669
-0.1769    -0.17333    0.015612
-0.24246    -0.28796    0.004306
-0.27981    -0.41479  -0.0074502
-0.2851    -0.54641   -0.018688
-0.25803    -0.67498   -0.029607
-0.20047    -0.79298   -0.040434
-0.11599    -0.89345   -0.051259
-0.0096454    -0.97044   -0.062098
0.1122     -1.0194   -0.072944
0.24227     -1.0373   -0.083793
0.3728     -1.0231   -0.094643
0.496    -0.97771    -0.10549
0.60452    -0.90379    -0.11634
0.69186    -0.80576    -0.12719
0.75282    -0.68947    -0.13804
0.78376    -0.56187    -0.14889
0.78283    -0.43057    -0.15973
0.75008    -0.30342    -0.17058
0.68748    -0.18801    -0.18143
0.59875   -0.091223    -0.19228
0.4892   -0.018847    -0.20313
0.36537    0.024801    -0.21398
0.23465    0.037114    -0.22483
0.10485    0.017356    -0.23567
-0.01629   -0.033292    -0.24652
-0.12153    -0.11181    -0.25737
-0.20458     -0.2135    -0.26822
-0.26049     -0.3323    -0.27907
-0.28592    -0.46112    -0.28992
-0.27935    -0.59226    -0.30078
-0.24119     -0.7179    -0.31164
-0.17376    -0.83051     -0.3225
-0.081135    -0.92335     -0.3333
0.031151    -0.99077    -0.34386
0.15674     -1.0284    -0.35402
0.28938      -1.033    -0.36421
0.42358     -1.0028    -0.37681
0.55567     -0.9394    -0.39983
-0.026346    -0.11226   -0.037759
-0.037683    -0.23968   -0.056686
-0.022818    -0.37156     -0.0701
0.022814    -0.49595   -0.081627
0.096809    -0.60491   -0.092475
0.19489    -0.69227    -0.10322
0.31121    -0.75309    -0.11401
0.43883    -0.78385    -0.12485
0.57011    -0.78275    -0.13569
0.69722    -0.74983    -0.14654
0.81255    -0.68708    -0.15739
0.90922    -0.59823    -0.16824
0.98146    -0.48859    -0.17909
1.0249     -0.3647    -0.18994
1.0371    -0.23397    -0.20079
1.0172    -0.10419    -0.21164
0.96637    0.016885    -0.22249
0.88772     0.12202    -0.23333
0.78592     0.20495    -0.24418
0.66705     0.26071    -0.25503
0.5382     0.28597    -0.26588
0.40708     0.27924    -0.27673
0.2815      0.2409    -0.28758
0.16897     0.17326    -0.29843
0.076202    0.080337    -0.30927
0.0087403   -0.032305    -0.32012
-0.029389    -0.15795    -0.33097
-0.035909    -0.28908    -0.34182
-0.010429    -0.41789    -0.35267
0.045532    -0.53667    -0.36352
0.12863    -0.63833    -0.37438
0.23387    -0.71683    -0.38523
0.35495    -0.76749    -0.39603
0.48458    -0.78735    -0.40674
0.61508     -0.7751    -0.41735
0.73879     -0.7306    -0.42819
0.84807    -0.65427     -0.4406
0.93568    -0.54784     -0.4576
0.99701    -0.42158    -0.47988
0.021252    -0.10723  -0.0071459
0.063294    -0.21096    -0.01978
0.12874    -0.31055   -0.033264
0.21571    -0.39233   -0.044874
0.31961    -0.45011   -0.055705
0.4342    -0.48058   -0.066426
0.55268    -0.48221   -0.077209
0.66803    -0.45504   -0.088042
0.77335     -0.4007   -0.098892
0.86237    -0.32245    -0.10974
0.92975    -0.22494    -0.12059
0.97147      -0.114    -0.13144
0.98504   0.0037492    -0.14229
0.96965     0.12127    -0.15314
0.92622     0.23155    -0.16399
0.85734     0.32801    -0.17484
0.76712     0.40488    -0.18569
0.66096     0.45757    -0.19653
0.54518     0.48295    -0.20738
0.4267     0.47949    -0.21823
0.31261      0.4474    -0.22908
0.2097     0.38859    -0.23993
0.12412     0.30659    -0.25078
0.060988     0.20627    -0.26163
0.024068    0.093646    -0.27248
0.015565   -0.024574    -0.28332
0.035987    -0.14133    -0.29417
0.084116    -0.24964    -0.30502
0.15708    -0.34305    -0.31587
0.25052    -0.41597    -0.32672
0.35886    -0.46406    -0.33757
0.47562    -0.48446    -0.34845
0.5938    -0.47597    -0.35932
0.70633    -0.43918    -0.37014
0.80645    -0.37626    -0.38069
0.88803    -0.29047    -0.39065
0.94548    -0.18541    -0.40013
0.97402   -0.064493    -0.41193
0.9725     0.06531    -0.43245
0.077441   -0.091684    0.018669
0.17333     -0.1769    0.015612
0.28796    -0.24246    0.004306
0.41479    -0.27981  -0.0074502
0.54641     -0.2851   -0.018688
0.67498    -0.25803   -0.029607
0.79298    -0.20047   -0.040434