# vtk DataFile Version 3.0
VTK Output
ASCII
DATASET UNSTRUCTURED_GRID

POINTS 1025 float
-0.5        -0.5           0
0.5        -0.5           0
0.5         0.5           0
-0.5         0.5           0
-0.5         -0.5           10
0.5         -0.5           10
0.5          0.5           10
-0.5          0.5           10
-0.25        -0.5           0
-1.3751e-12        -0.5           0
0.25        -0.5           0
0.5       -0.25           0
0.5 -1.3751e-12           0
0.5        0.25           0
0.25         0.5           0
1.3751e-12         0.5           0
-0.25         0.5           0
-0.5        0.25           0
-0.5  1.3751e-12           0
-0.5       -0.25           0
-0.25         -0.5           10
-1.37512e-12         -0.5           10
0.25         -0.5           10
0.5        -0.25           10
0.5 -1.37512e-12           10
0.5         0.25           10
0.25          0.5           10
1.37512e-12          0.5           10
-0.25          0.5           10
-0.5         0.25           10
-0.5  1.37512e-12           10
-0.5        -0.25           10
-0.5        -0.5        0.25
-0.5        -0.5         0.5
-0.5        -0.5        0.75
-0.5        -0.5           1
-0.5        -0.5        1.25
-0.5        -0.5         1.5
-0.5        -0.5        1.75
-0.5        -0.5           2
-0.5        -0.5        2.25
-0.5        -0.5         2.5
-0.5        -0.5        2.75
-0.5        -0.5           3
-0.5        -0.5        3.25
-0.5        -0.5         3.5
-0.5        -0.5        3.75
-0.5        -0.5           4
-0.5        -0.5        4.25
-0.5        -0.5         4.5
-0.5        -0.5        4.75
-0.5        -0.5           5
-0.5        -0.5        5.25
-0.5        -0.5         5.5
-0.5        -0.5        5.75
-0.5        -0.5           6
-0.5        -0.5        6.25
-0.5        -0.5         6.5
-0.5        -0.5        6.75
-0.5        -0.5           7
-0.5        -0.5        7.25
-0.5        -0.5         7.5
-0.5        -0.5        7.75
-0.5        -0.5           8
-0.5        -0.5        8.25
-0.5        -0.5         8.5
-0.5        -0.5        8.75
-0.5        -0.5           9
-0.5        -0.5        9.25
-0.5        -0.5         9.5
-0.5        -0.5        9.75
0.5        -0.5        0.25
0.5        -0.5         0.5
0.5        -0.5        0.75
0.5        -0.5           1
0.5        -0.5        1.25
0.5        -0.5         1.5
0.5        -0.5        1.75
0.5        -0.5           2
0.5        -0.5        2.25
0.5        -0.5         2.5
0.5        -0.5        2.75
0.5        -0.5           3
0.5        -0.5        3.25
0.5        -0.5         3.5
0.5        -0.5        3.75
0.5        -0.5           4
0.5        -0.5        4.25
0.5        -0.5         4.5
0.5        -0.5        4.75
0.5        -0.5           5
0.5        -0.5        5.25
0.5        -0.5         5.5
0.5        -0.5        5.75
0.5        -0.5           6
0.5        -0.5        6.25
0.5        -0.5         6.5
0.5        -0.5        6.75
0.5        -0.5           7
0.5        -0.5        7.25
0.5        -0.5         7.5
0.5        -0.5        7.75
0.5        -0.5           8
0.5        -0.5        8.25
0.5        -0.5         8.5
0.5        -0.5        8.75
0.5        -0.5           9
0.5        -0.5        9.25
0.5        -0.5         9.5
0.5        -0.5        9.75
0.5         0.5        0.25
0.5         0.5         0.5
0.5         0.5        0.75
0.5         0.5           1
0.5         0.5        1.25
0.5         0.5         1.5
0.5         0.5        1.75
0.5         0.5           2
0.5         0.5        2.25
0.5         0.5         2.5
0.5         0.5        2.75
0.5         0.5           3
0.5         0.5        3.25
0.5         0.5         3.5
0.5         0.5        3.75
0.5         0.5           4
0.5         0.5        4.25
0.5         0.5         4.5
0.5         0.5        4.75
0.5         0.5           5
0.5         0.5        5.25
0.5         0.5         5.5
0.5         0.5        5.75
0.5         0.5           6
0.5         0.5        6.25
0.5         0.5         6.5
0.5         0.5        6.75
0.5         0.5           7
0.5         0.5        7.25
0.5         0.5         7.5
0.5         0.5        7.75
0.5         0.5           8
0.5         0.5        8.25
0.5         0.5         8.5
0.5         0.5        8.75
0.5         0.5           9
0.5         0.5        9.25
0.5         0.5         9.5
0.5         0.5        9.75
-0.5         0.5        0.25
-0.5         0.5         0.5
-0.5         0.5        0.75
-0.5         0.5           1
-0.5         0.5        1.25
-0.5         0.5         1.5
-0.5         0.5        1.75
-0.5         0.5           2
-0.5         0.5        2.25
-0.5         0.5         2.5
-0.5         0.5        2.75
-0.5         0.5           3
-0.5         0.5        3.25
-0.5         0.5         3.5
-0.5         0.5        3.75
-0.5         0.5           4
-0.5         0.5        4.25
-0.5         0.5         4.5
-0.5         0.5        4.75
-0.5         0.5           5
-0.5         0.5        5.25
-0.5         0.5         5.5
-0.5         0.5        5.75
-0.5         0.5           6
-0.5         0.5        6.25
-0.5         0.5         6.5
-0.5         0.5        6.75
-0.5         0.5           7
-0.5         0.5        7.25
-0.5         0.5         7.5
-0.5         0.5        7.75
-0.5         0.5           8
-0.5         0.5        8.25
-0.5         0.5         8.5
-0.5         0.5        8.75
-0.5         0.5           9
-0.5         0.5        9.25
-0.5         0.5         9.5
-0.5         0.5        9.75
-0.25       -0.25           0
-0.25  6.8756e-13           0
-0.25        0.25           0
-6.8756e-13       -0.25           0
-3.7821e-24           0           0
6.8756e-13        0.25           0
0.25       -0.25           0
0.25 -6.8756e-13           0
0.25        0.25           0
-0.25        -0.5        0.25
-0.25        -0.5         0.5
-0.25        -0.5        0.75
-0.25        -0.5           1
-0.25        -0.5        1.25
-0.25        -0.5         1.5
-0.25        -0.5        1.75
-0.25        -0.5           2
-0.25        -0.5        2.25
-0.25        -0.5         2.5
-0.25        -0.5        2.75
-0.25        -0.5           3
-0.25        -0.5        3.25
-0.25        -0.5         3.5
-0.25        -0.5        3.75
-0.25        -0.5           4
-0.25        -0.5        4.25
-0.25        -0.5         4.5
-0.25        -0.5        4.75
-0.25        -0.5           5
-0.25        -0.5        5.25
-0.25        -0.5         5.5
-0.25        -0.5        5.75
-0.25        -0.5           6
-0.25        -0.5        6.25
-0.25        -0.5         6.5
-0.25        -0.5        6.75
-0.25        -0.5           7
-0.25        -0.5        7.25
-0.25        -0.5         7.5
-0.25        -0.5        7.75
-0.25        -0.5           8
-0.25        -0.5        8.25
-0.25        -0.5         8.5
-0.25        -0.5        8.75
-0.25        -0.5           9
-0.25        -0.5        9.25
-0.25        -0.5         9.5
-0.25        -0.5        9.75
-1.3751e-12        -0.5        0.25
-1.3751e-12        -0.5         0.5
-1.3751e-12        -0.5        0.75
-1.3751e-12        -0.5           1
-1.3751e-12        -0.5        1.25
-1.3751e-12        -0.5         1.5
-1.3751e-12        -0.5        1.75
-1.3751e-12        -0.5           2
-1.3751e-12        -0.5        2.25
-1.3751e-12        -0.5         2.5
-1.3751e-12        -0.5        2.75
-1.3751e-12        -0.5           3
-1.3751e-12        -0.5        3.25
-1.3751e-12        -0.5         3.5
-1.3751e-12        -0.5        3.75
-1.3751e-12        -0.5           4
-1.3751e-12        -0.5        4.25
-1.3751e-12        -0.5         4.5
-1.3751e-12        -0.5        4.75
-1.3751e-12        -0.5           5
-1.3751e-12        -0.5        5.25
-1.3751e-12        -0.5         5.5
-1.3751e-12        -0.5        5.75
-1.3751e-12        -0.5           6
-1.3751e-12        -0.5        6.25
-1.3751e-12        -0.5         6.5
-1.3751e-12        -0.5        6.75
-1.3751e-12        -0.5           7
-1.3751e-12        -0.5        7.25
-1.3751e-12        -0.5         7.5
-1.3751e-12        -0.5        7.75
-1.3751e-12        -0.5           8
-1.3751e-12        -0.5        8.25
-1.3751e-12        -0.5         8.5
-1.3751e-12        -0.5        8.75
-1.3751e-12        -0.5           9
-1.3751e-12        -0.5        9.25
-1.3751e-12        -0.5         9.5
-1.3751e-12        -0.5        9.75
0.25        -0.5        0.25
0.25        -0.5         0.5
0.25        -0.5        0.75
0.25        -0.5           1
0.25        -0.5        1.25
0.25        -0.5         1.5
0.25        -0.5        1.75
0.25        -0.5           2
0.25        -0.5        2.25
0.25        -0.5         2.5
0.25        -0.5        2.75
0.25        -0.5           3
0.25        -0.5        3.25
0.25        -0.5         3.5
0.25        -0.5        3.75
0.25        -0.5           4
0.25        -0.5        4.25
0.25        -0.5         4.5
0.25        -0.5        4.75
0.25        -0.5           5
0.25        -0.5        5.25
0.25        -0.5         5.5
0.25        -0.5        5.75
0.25        -0.5           6
0.25        -0.5        6.25
0.25        -0.5         6.5
0.25        -0.5        6.75
0.25        -0.5           7
0.25        -0.5        7.25
0.25        -0.5         7.5
0.25        -0.5        7.75
0.25        -0.5           8
0.25        -0.5        8.25
0.25        -0.5         8.5
0.25        -0.5        8.75
0.25        -0.5           9
0.25        -0.5        9.25
0.25        -0.5         9.5
0.25        -0.5        9.75
0.5       -0.25        0.25
0.5       -0.25         0.5
0.5       -0.25        0.75
0.5       -0.25           1
0.5       -0.25        1.25
0.5       -0.25         1.5
0.5       -0.25        1.75
0.5       -0.25           2
0.5       -0.25        2.25
0.5       -0.25         2.5
0.5       -0.25        2.75
0.5       -0.25           3
0.5       -0.25        3.25
0.5       -0.25         3.5
0.5       -0.25        3.75
0.5       -0.25           4
0.5       -0.25        4.25
[...]
POINT_DATA 1025
VECTORS displacement double
0  0  0
0  0  0
0  0  0
0  0  0
0.5    -0.20711    -0.26586
0.20711         0.5    -0.26586
-0.5     0.20711    -0.26586
-0.20711        -0.5    -0.26586
0  0  0
0  0  0
0  0  0
0  0  0
0  0  0
0  0  0
0  0  0
0  0  0
0  0  0
0  0  0
0  0  0
0  0  0
0.42678    -0.03033    -0.28129
0.35355     0.14645    -0.24891
0.28033     0.32322    -0.22455
0.03033     0.42678    -0.28129
-0.14645     0.35355    -0.24891
-0.32322     0.28033    -0.22455
-0.42678     0.03033    -0.28129
-0.35355    -0.14645    -0.24891
-0.28033    -0.32322    -0.22455
-0.03033    -0.42678    -0.28129
0.14645    -0.35355    -0.24891
0.32322    -0.28033    -0.22455
0.087837   -0.060047  -0.0021539
0.19532    -0.12308   -0.010635
0.31105    -0.16654   -0.017812
0.43177    -0.18939   -0.024249
0.55427    -0.19072   -0.030299
0.67494    -0.17046   -0.036189
0.79012    -0.12927   -0.042054
0.89625   -0.068456   -0.047928
0.99003    0.010079    -0.05381
1.0685     0.10388   -0.059696
1.1293     0.21003   -0.065582
1.1705     0.32521   -0.071468
1.1908     0.44585   -0.077355
1.1896     0.56816   -0.083241
1.1668     0.68836   -0.089127
1.1233     0.80268   -0.095013
1.0604     0.90758     -0.1009
0.97998     0.99977    -0.10679
0.88462      1.0764    -0.11267
0.77728       1.135    -0.11856
0.66129      1.1739    -0.12444
0.54028      1.1918    -0.13033
0.41801      1.1881    -0.13622
0.29829      1.1629     -0.1421
0.18486      1.1171    -0.14799
0.081257      1.0521    -0.15387
-0.0093008     0.96986    -0.15976
-0.083986     0.87298    -0.16565
-0.14047     0.76447    -0.17153
-0.177     0.64773    -0.17742
-0.19243     0.52638    -0.18331
-0.18629     0.40421     -0.1892
-0.15877     0.28504    -0.19506
-0.11073     0.17259    -0.20088
-0.043614    0.070397     -0.2066
0.040738   -0.018334    -0.21232
0.14034   -0.090829    -0.21878
0.25298    -0.14523    -0.22813
0.3752    -0.18187    -0.24323
0.060047    0.087837  -0.0021539
0.12308     0.19532   -0.010635
0.16654     0.31105   -0.017812
0.18939     0.43177   -0.024249
0.19072     0.55427   -0.030299
0.17046     0.67494   -0.036189
0.12927     0.79012   -0.042054
0.068456     0.89625   -0.047928
-0.010079     0.99003    -0.05381
-0.10388      1.0685   -0.059696
-0.21003      1.1293   -0.065582
-0.32521      1.1705   -0.071468
-0.44585      1.1908   -0.077355
-0.56816      1.1896   -0.083241
-0.68836      1.1668   -0.089127
-0.80268      1.1233   -0.095013
-0.90758      1.0604     -0.1009
-0.99977     0.97998    -0.10679
-1.0764     0.88462    -0.11267
-1.135     0.77728    -0.11856
-1.1739     0.66129    -0.12444
-1.1918     0.54028    -0.13033
-1.1881     0.41801    -0.13622
-1.1629     0.29829     -0.1421
-1.1171     0.18486    -0.14799
-1.0521    0.081257    -0.15387
-0.96986  -0.0093008    -0.15976
-0.87298   -0.083986    -0.16565
-0.76447    -0.14047    -0.17153
-0.64773      -0.177    -0.17742
-0.52638    -0.19243    -0.18331
-0.40421    -0.18629     -0.1892
-0.28504    -0.15877    -0.19506
-0.17259    -0.11073    -0.20088
-0.070397   -0.043614     -0.2066
0.018334    0.040738    -0.21232
0.090829     0.14034    -0.21878
0.14523     0.25298    -0.22813
0.18187      0.3752    -0.24323
-0.087837    0.060047  -0.0021539
-0.19532     0.12308   -0.010635
-0.31105     0.16654   -0.017812
-0.43177     0.18939   -0.024249
-0.55427     0.19072   -0.030299
-0.67494     0.17046   -0.036189
-0.79012     0.12927   -0.042054
-0.89625    0.068456   -0.047928
-0.99003   -0.010079    -0.05381
-1.0685    -0.10388   -0.059696
-1.1293    -0.21003   -0.065582
-1.1705    -0.32521   -0.071468
-1.1908    -0.44585   -0.077355
-1.1896    -0.56816   -0.083241
-1.1668    -0.68836   -0.089127
-1.1233    -0.80268   -0.095013
-1.0604    -0.90758     -0.1009
-0.97998    -0.99977    -0.10679
-0.88462     -1.0764    -0.11267
-0.77728      -1.135    -0.11856
-0.66129     -1.1739    -0.12444
-0.54028     -1.1918    -0.13033
-0.41801     -1.1881    -0.13622
-0.29829     -1.1629     -0.1421
-0.18486     -1.1171    -0.14799
-0.081257     -1.0521    -0.15387
0.0093008    -0.96986    -0.15976
0.083986    -0.87298    -0.16565
0.14047    -0.76447    -0.17153
0.177    -0.64773    -0.17742
0.19243    -0.52638    -0.18331
0.18629    -0.40421     -0.1892
0.15877    -0.28504    -0.19506
0.11073    -0.17259    -0.20088
0.043614   -0.070397     -0.2066
-0.040738    0.018334    -0.21232
-0.14034    0.090829    -0.21878
-0.25298     0.14523    -0.22813
-0.3752     0.18187    -0.24323
-0.060047   -0.087837  -0.0021539
-0.12308    -0.19532   -0.010635
-0.16654    -0.31105   -0.017812
-0.18939    -0.43177   -0.024249
-0.19072    -0.55427   -0.030299
-0.17046    -0.67494   -0.036189
-0.12927    -0.79012   -0.042054
-0.068456    -0.89625   -0.047928
0.010079    -0.99003    -0.05381
0.10388     -1.0685   -0.059696
0.21003     -1.1293   -0.065582
0.32521     -1.1705   -0.071468
0.44585     -1.1908   -0.077355
0.56816     -1.1896   -0.083241
0.68836     -1.1668   -0.089127
0.80268     -1.1233   -0.095013
0.90758     -1.0604     -0.1009
0.99977    -0.97998    -0.10679
1.0764    -0.88462    -0.11267
1.135    -0.77728    -0.11856
1.1739    -0.66129    -0.12444
1.1918    -0.54028    -0.13033
1.1881    -0.41801    -0.13622
1.1629    -0.29829     -0.1421
1.1171    -0.18486    -0.14799
1.0521   -0.081257    -0.15387
0.96986   0.0093008    -0.15976
0.87298    0.083986    -0.16565
0.76447     0.14047    -0.17153
0.64773       0.177    -0.17742
0.52638     0.19243    -0.18331
0.40421     0.18629     -0.1892
0.28504     0.15877    -0.19506
0.17259     0.11073    -0.20088
0.070397    0.043614     -0.2066
-0.018334   -0.040738    -0.21232
-0.090829    -0.14034    -0.21878
-0.14523    -0.25298    -0.22813
-0.18187     -0.3752    -0.24323
0  0  0
0  0  0
0  0  0
0  0  0
0  0  0
0  0  0
0  0  0
0  0  0
0  0  0
0.083484   -0.024986    -0.02643
0.17631   -0.042889   -0.037787
0.27353   -0.047107   -0.044808
0.36983   -0.034367   -0.050919
0.4621   -0.005013   -0.056797
0.54764     0.04012   -0.062654
0.62387    0.099609   -0.068524
0.68845     0.17159   -0.074405
0.73937      0.2538   -0.080291
0.77503     0.34369   -0.086177
0.79434     0.43845   -0.092063
0.79668     0.53513    -0.09795
0.78198     0.63071    -0.10384
0.75071     0.72222    -0.10972
0.70383     0.80681    -0.11561
0.64281     0.88183    -0.12149
0.56955     0.94495    -0.12738
0.48632     0.99421    -0.13327
0.39574      1.0281    -0.13915
0.30061      1.0455    -0.14504
0.2039      1.0459    -0.15092
0.10864      1.0293    -0.15681
0.017772     0.99615     -0.1627
-0.065855     0.94758    -0.16858
-0.13964     0.88507    -0.17447
-0.20128     0.81055    -0.18036
-0.24885     0.72636    -0.18624
-0.28088     0.63511    -0.19213
-0.29637     0.53965    -0.19801
-0.29483     0.44295     -0.2039
-0.27631     0.34804    -0.20979
-0.24139     0.25786    -0.21567
-0.19118     0.17522    -0.22155
-0.12725     0.10272     -0.2274
-0.051528    0.042621    -0.23322
0.033853  -0.0030301     -0.2391
0.12677   -0.032341    -0.24546
0.22504   -0.043919    -0.25345
0.32468   -0.038793    -0.26421
0.081977     0.01206  -0.0045435
0.1607     0.03494   -0.011292
0.23973    0.070779   -0.018303
0.31185     0.11966   -0.024456
0.37407     0.18044   -0.030324
0.4245     0.25119   -0.036171
0.46164     0.32971    -0.04204
0.48439     0.41353   -0.047923
0.49204     0.50005   -0.053809
0.48437     0.58658   -0.059696
0.4616      0.6704   -0.065582
0.42444     0.74891   -0.071468
0.37405     0.81967   -0.077355
0.31201     0.88047   -0.083241
0.24025      0.9294   -0.089127
0.161     0.96496   -0.095013
0.076728     0.98602     -0.1009
-0.0099323     0.99194    -0.10679
-0.096283     0.98253    -0.11267
-0.17963     0.95808    -0.11856
-0.25739     0.91936    -0.12444
-0.32712     0.86756    -0.13033
-0.38665     0.80431    -0.13622
-0.43414     0.73158     -0.1421
-0.4681     0.65163    -0.14799
-0.48747     0.56696    -0.15387
-0.49164     0.48019    -0.15976
-0.4805     0.39405    -0.16565
-0.45438     0.31121    -0.17153
-0.4141     0.23425    -0.17742
-0.36092     0.16557    -0.18331
-0.29649     0.10731     -0.1892
-0.22284    0.061287    -0.19509
-0.14226    0.028926    -0.20097
-0.057265    0.011271    -0.20678
0.02959   0.0090415    -0.21242
0.11582    0.022822    -0.21787
0.1992     0.05299    -0.22386
0.27793    0.097782    -0.23319
0.072218    0.053459    0.015275
0.14249     0.11751    0.014629
0.20328     0.19306   0.0085052
0.25046      0.2778   0.0022423
0.28193     0.36939  -0.0037794
0.29668       0.465  -0.0096854
0.29433     0.56168   -0.015565
0.275     0.65643   -0.021445
0.23931     0.74631   -0.027329
0.18838     0.82851   -0.033215
0.12378     0.90048   -0.039101
0.047531     0.95997   -0.044987
-0.037987      1.0051   -0.050873
-0.13011      1.0345   -0.056759
-0.22597      1.0473   -0.062646
-0.32259       1.043   -0.068532
-0.41693      1.0218   -0.074418
-0.50608     0.98427   -0.080304
-0.58725     0.93169    -0.08619
-0.6579     0.86566   -0.092076
-0.71585     0.78824   -0.097962
-0.75927     0.70183    -0.10385
-0.78683     0.60913    -0.10973
-0.79765     0.51303    -0.11562
-0.79141     0.41653    -0.12151
-0.7683     0.32263    -0.12739
-0.72903     0.23425    -0.13328
-0.67483     0.15416    -0.13916
-0.6074     0.08484    -0.14505
-0.52883    0.028462    -0.15094
-0.44156   -0.013223    -0.15683
-0.34833   -0.038916    -0.16271
-0.25205   -0.047823     -0.1686
-0.15572   -0.039663    -0.17447
-0.062376   -0.014652    -0.18026
0.025052    0.026602    -0.18595
0.10391    0.083254    -0.19167
0.17223     0.15426    -0.19827
0.23016     0.23809    -0.20885
0.024986    0.083484    -0.02643
0.042889     0.17631   -0.037787
0.047107     0.27353   -0.044808
0.034367     0.36983   -0.050919
0.005013      0.4621   -0.056797
-0.04012     0.54764   -0.062654
-0.099609     0.62387   -0.068524
-0.17159     0.68845   -0.074405
-0.2538     0.73937   -0.080291
-0.34369     0.77503   -0.086177
-0.43845     0.79434   -0.092063
-0.53513     0.79668    -0.09795
-0.63071     0.78198    -0.10384
-0.72222     0.75071    -0.10972
-0.80681     0.70383    -0.11561
-0.88183     0.64281    -0.12149
-0.94495     0.56955    -0.12738
-0.99421     0.48632    -0.13327
-1.0281     0.39574    -0.13915
-1.0455     0.30061    -0.14504
-1.0459      0.2039    -0.15092
-1.0293     0.10864    -0.15681
-0.99615    0.017772     -0.1627
-0.94758   -0.065855    -0.16858
-0.88507    -0.13964    -0.17447
-0.81055    -0.20128    -0.18036
-0.72636    -0.24885    -0.18624
-0.63511    -0.28088    -0.19213
-0.53965    -0.29637    -0.19801
-0.44295    -0.29483     -0.2039
-0.34804    -0.27631    -0.20979
-0.25786    -0.24139    -0.21567
-0.17522    -0.19118    -0.22155
-0.10272    -0.12725     -0.2274
-0.042621   -0.051528    -0.23322
0.0030301    0.033853     -0.2391
0.032341     0.12677    -0.24546
0.043919     0.22504    -0.25345
0.038793     0.32468    -0.26421
-0.01206    0.081977  -0.0045435
-0.03494      0.1607   -0.011292
-0.070779     0.23973   -0.018303
-0.11966     0.31185   -0.024456
-0.18044     0.37407   -0.030324
-0.25119      0.4245   -0.036171
-0.32971     0.46164    -0.04204
-0.41353     0.48439   -0.047923
-0.50005     0.49204   -0.053809
-0.58658     0.48437   -0.059696
-0.6704      0.4616   -0.065582
-0.74891     0.42444   -0.071468
-0.81967     0.37405   -0.077355
-0.88047     0.31201   -0.083241
-0.9294     0.24025   -0.089127
-0.96496       0.161   -0.095013
-0.98602    0.076728     -0.1009
-0.99194  -0.0099323    -0.10679
-0.98253   -0.096283    -0.11267
-0.95808    -0.17963    -0.11856
-0.91936    -0.25739    -0.12444
-0.86756    -0.32712    -0.13033
-0.80431    -0.38665    -0.13622
-0.73158    -0.43414     -0.1421
-0.65163     -0.4681    -0.14799
-0.56696    -0.48747    -0.15387
-0.48019    -0.49164    -0.15976
-0.39405     -0.4805    -0.16565
-0.31121    -0.45438    -0.17153
-0.23425     -0.4141    -0.17742
-0.16557    -0.36092    -0.18331
-0.10731    -0.29649     -0.1892
-0.061287    -0.22284    -0.19509
-0.028926    -0.14226    -0.20097
-0.011271   -0.057265    -0.20678
-0.0090415     0.02959    -0.21242
-0.022822     0.11582    -0.21787
-0.05299      0.1992    -0.22386
-0.097782     0.27793    -0.23319
-0.053459    0.072218    0.015275
-0.11751     0.14249    0.014629
-0.19306     0.20328   0.0085052
-0.2778     0.25046   0.0022423
-0.36939     0.28193  -0.0037794
-0.465     0.29668  -0.0096854
-0.56168     0.29433   -0.015565
-0.65643       0.275   -0.021445
-0.74631     0.23931   -0.027329
-0.82851     0.18838   -0.033215
-0.90048     0.12378   -0.039101
-0.95997    0.047531   -0.044987
-1.0051   -0.037987   -0.050873
-1.0345    -0.13011   -0.056759
-1.0473    -0.22597   -0.062646
-1.043    -0.32259   -0.068532
-1.0218    -0.41693   -0.074418
-0.98427    -0.50608   -0.080304
-0.93169    -0.58725    -0.08619
-0.86566     -0.6579   -0.092076
-0.78824    -0.71585   -0.097962
-0.70183    -0.75927    -0.10385
-0.60913    -0.78683    -0.10973
-0.51303    -0.79765    -0.11562
-0.41653    -0.79141    -0.12151
-0.32263     -0.7683    -0.12739
-0.23425    -0.72903    -0.13328
-0.15416    -0.67483    -0.13916
-0.08484     -0.6074    -0.14505
-0.028462    -0.52883    -0.15094
0.013223    -0.44156    -0.15683
0.038916    -0.34833    -0.16271
0.047823    -0.25205     -0.1686
0.039663    -0.15572    -0.17447
0.014652   -0.062376    -0.18026
-0.026602    0.025052    -0.18595
-0.083254     0.10391    -0.19167
-0.15426     0.17223    -0.19827
-0.23809     0.23016    -0.20885
-0.083484    0.024986    -0.02643
-0.17631    0.042889   -0.037787
-0.27353    0.047107   -0.044808
-0.36983    0.034367   -0.050919
-0.4621    0.005013   -0.056797
-0.54764    -0.04012   -0.062654
-0.62387   -0.099609   -0.068524
-0.68845    -0.17159   -0.074405
-0.73937     -0.2538   -0.080291
-0.77503    -0.34369   -0.086177
-0.79434    -0.43845   -0.092063
-0.79668    -0.53513    -0.09795
-0.78198    -0.63071    -0.10384
-0.75071    -0.72222    -0.10972
-0.70383    -0.80681    -0.11561
-0.64281    -0.88183    -0.12149
-0.56955    -0.94495    -0.12738
-0.48632    -0.99421    -0.13327
-0.39574     -1.0281    -0.13915
-0.30061     -1.0455    -0.14504
-0.2039     -1.0459    -0.15092
-0.10864     -1.0293    -0.15681
-0.017772    -0.99615     -0.1627
0.065855    -0.94758    -0.16858
0.13964    -0.88507    -0.17447
0.20128    -0.81055    -0.18036
0.24885    -0.72636    -0.18624
0.28088    -0.63511    -0.19213
0.29637    -0.53965    -0.19801
0.29483    -0.44295     -0.2039
0.27631    -0.34804    -0.20979
0.24139    -0.25786    -0.21567
0.19118    -0.17522    -0.22155
0.12725    -0.10272     -0.2274
0.051528   -0.042621    -0.23322
-0.033853   0.0030301     -0.2391
-0.12677    0.032341    -0.24546
-0.22504    0.043919    -0.25345
-0.32468    0.038793    -0.26421
-0.081977    -0.01206  -0.0045435
-0.1607    -0.03494   -0.011292
-0.23973   -0.070779   -0.018303
-0.31185    -0.11966   -0.024456
-0.37407    -0.18044   -0.030324
-0.4245    -0.25119   -0.036171
-0.46164    -0.32971    -0.04204
-0.48439    -0.41353   -0.047923
-0.49204    -0.50005   -0.053809
-0.48437    -0.58658   -0.059696
-0.4616     -0.6704   -0.065582
-0.42444    -0.74891   -0.071468
-0.37405    -0.81967   -0.077355
-0.31201    -0.88047   -0.083241
-0.24025     -0.9294   -0.089127
-0.161    -0.96496   -0.095013
-0.076728    -0.98602     -0.1009
0.0099323    -0.99194    -0.10679
0.096283    -0.98253    -0.11267
0.17963    -0.95808    -0.11856
0.25739    -0.91936    -0.12444
0.32712    -0.86756    -0.13033
0.38665    -0.80431    -0.13622
0.43414    -0.73158     -0.1421
0.4681    -0.65163    -0.14799
0.48747    -0.56696    -0.15387
0.49164    -0.48019    -0.15976
0.4805    -0.39405    -0.16565
0.45438    -0.31121    -0.17153
0.4141    -0.23425    -0.17742
0.36092    -0.16557    -0.18331
0.29649    -0.10731     -0.1892
0.22284   -0.061287    -0.19509
0.14226   -0.028926    -0.20097
0.057265   -0.011271    -0.20678
-0.02959  -0.0090415    -0.21242
-0.11582   -0.022822    -0.21787
-0.1992    -0.05299    -0.22386
-0.27793   -0.097782    -0.23319
-0.072218   -0.053459    0.015275
-0.14249    -0.11751    0.014629
-0.20328    -0.19306   0.0085052
-0.25046     -0.2778   0.0022423
-0.28193    -0.36939  -0.0037794
-0.29668      -0.465  -0.0096854
-0.29433    -0.56168   -0.015565
-0.275    -0.65643   -0.021445
-0.23931    -0.74631   -0.027329
-0.18838    -0.82851   -0.033215
-0.12378    -0.90048   -0.039101
-0.047531    -0.95997   -0.044987
0.037987     -1.0051   -0.050873
0.13011     -1.0345   -0.056759
0.22597     -1.0473   -0.062646
0.32259      -1.043   -0.068532
0.41693     -1.0218   -0.074418
0.50608    -0.98427   -0.080304
0.58725    -0.93169    -0.08619
0.6579    -0.86566   -0.092076
0.71585    -0.78824   -0.097962
0.75927    -0.70183    -0.10385
0.78683    -0.60913    -0.10973
0.79765    -0.51303    -0.11562
0.79141    -0.41653    -0.12151
0.7683    -0.32263    -0.12739
0.72903    -0.23425    -0.13328
0.67483    -0.15416    -0.13916
0.6074    -0.08484    -0.14505
0.52883   -0.028462    -0.15094
0.44156    0.013223    -0.15683
0.34833    0.038916    -0.16271
0.25205    0.047823     -0.1686
0.15572    0.039663    -0.17447
0.062376    0.014652    -0.18026
-0.025052   -0.026602    -0.18595
-0.10391   -0.083254    -0.19167
-0.17223    -0.15426    -0.19827
-0.23016    -0.23809    -0.20885
-0.024986   -0.083484    -0.02643
-0.042889    -0.17631   -0.037787
-0.047107    -0.27353   -0.044808
-0.034367    -0.36983   -0.050919
-0.005013     -0.4621   -0.056797
0.04012    -0.54764   -0.062654
0.099609    -0.62387   -0.068524
0.17159    -0.68845   -0.074405
0.2538    -0.73937   -0.080291
0.34369    -0.77503   -0.086177
0.43845    -0.79434   -0.092063
0.53513    -0.79668    -0.09795
0.63071    -0.78198    -0.10384
0.72222    -0.75071    -0.10972
0.80681    -0.70383    -0.11561
0.88183    -0.64281    -0.12149
0.94495    -0.56955    -0.12738
0.99421    -0.48632    -0.13327
1.0281    -0.39574    -0.13915
1.0455    -0.30061    -0.14504
1.0459     -0.2039    -0.15092
1.0293    -0.10864    -0.15681
0.99615   -0.017772     -0.1627
0.94758    0.065855    -0.16858
0.88507     0.13964    -0.17447
0.81055     0.20128    -0.18036
0.72636     0.24885    -0.18624
0.63511     0.28088    -0.19213
0.53965     0.29637    -0.19801
0.44295     0.29483     -0.2039
0.34804     0.27631    -0.20979
0.25786     0.24139    -0.21567
0.17522     0.19118    -0.22155
0.10272     0.12725     -0.2274
0.042621    0.051528    -0.23322
-0.0030301   -0.033853     -0.2391
-0.032341    -0.12677    -0.24546
-0.043919    -0.22504    -0.25345
-0.038793    -0.32468    -0.26421
0.01206   -0.081977  -0.0045435
0.03494     -0.1607   -0.011292
0.070779    -0.23973   -0.018303
0.11966    -0.31185   -0.024456
0.18044    -0.37407   -0.030324
0.25119     -0.4245   -0.036171
0.32971    -0.46164    -0.04204
0.41353    -0.48439   -0.047923
0.50005    -0.49204   -0.053809
0.58658    -0.48437   -0.059696
0.6704     -0.4616   -0.065582
0.74891    -0.42444   -0.071468
0.81967    -0.37405   -0.077355
0.88047    -0.31201   -0.083241
0.9294    -0.24025   -0.089127
0.96496      -0.161   -0.095013
0.98602   -0.076728     -0.1009
0.99194   0.0099323    -0.10679
0.98253    0.096283    -0.11267
0.95808     0.17963    -0.11856
0.91936     0.25739    -0.12444
0.86756     0.32712    -0.13033
0.80431     0.38665    -0.13622
0.73158     0.43414     -0.1421
0.65163      0.4681    -0.14799
0.56696     0.48747    -0.15387
0.48019     0.49164    -0.15976
0.39405      0.4805    -0.16565
0.31121     0.45438    -0.17153
0.23425      0.4141    -0.17742
0.16557     0.36092    -0.18331
0.10731     0.29649     -0.1892
0.061287     0.22284    -0.19509
0.028926     0.14226    -0.20097
0.011271    0.057265    -0.20678
0.0090415    -0.02959    -0.21242
0.022822    -0.11582    -0.21787
0.05299     -0.1992    -0.22386
0.097782    -0.27793    -0.23319
0.053459   -0.072218    0.015275
0.11751    -0.14249    0.014629
0.19306    -0.20328   0.0085052
0.2778    -0.25046   0.0022423
0.36939    -0.28193  -0.0037794
0.465    -0.29668  -0.0096854