# vtk DataFile Version 3.0
VTK Output
ASCII
DATASET UNSTRUCTURED_GRID

POINTS 1025 float
-0.5        -0.5           0
0.5        -0.5           0
0.5         0.5           0
-0.5         0.5           0
-0.5         -0.5           10
0.5         -0.5           10
0.5          0.5           10
-0.5          0.5           10
-0.25        -0.5           0
-1.3751e-12        -0.5           0
0.25        -0.5           0
0.5       -0.25           0
0.5 -1.3751e-12           0
0.5        0.25           0
0.25         0.5           0
1.3751e-12         0.5           0
-0.25         0.5           0
-0.5        0.25           0
-0.5  1.3751e-12           0
-0.5       -0.25           0
-0.25         -0.5           10
-1.37512e-12         -0.5           10
0.25         -0.5           10
0.5        -0.25           10
0.5 -1.37512e-12           10
0.5         0.25           10
0.25          0.5           10
1.37512e-12          0.5           10
-0.25          0.5           10
-0.5         0.25           10
-0.5  1.37512e-12           10
-0.5        -0.25           10
-0.5        -0.5        0.25
-0.5        -0.5         0.5
-0.5        -0.5        0.75
-0.5        -0.5           1
-0.5        -0.5        1.25
-0.5        -0.5         1.5
-0.5        -0.5        1.75
-0.5        -0.5           2
-0.5        -0.5        2.25
-0.5        -0.5         2.5
-0.5        -0.5        2.75
-0.5        -0.5           3
-0.5        -0.5        3.25
-0.5        -0.5         3.5
-0.5        -0.5        3.75
-0.5        -0.5           4
-0.5        -0.5        4.25
-0.5        -0.5         4.5
-0.5        -0.5        4.75
-0.5        -0.5           5
-0.5        -0.5        5.25
-0.5        -0.5         5.5
-0.5        -0.5        5.75
-0.5        -0.5           6
-0.5        -0.5        6.25
-0.5        -0.5         6.5
-0.5        -0.5        6.75
-0.5        -0.5           7
-0.5        -0.5        7.25
-0.5        -0.5         7.5
-0.5        -0.5        7.75
-0.5        -0.5           8
-0.5        -0.5        8.25
-0.5        -0.5         8.5
-0.5        -0.5        8.75
-0.5        -0.5           9
-0.5        -0.5        9.25
-0.5        -0.5         9.5
-0.5        -0.5        9.75
0.5        -0.5        0.25
0.5        -0.5         0.5
0.5        -0.5        0.75
0.5        -0.5           1
0.5        -0.5        1.25
0.5        -0.5         1.5
0.5        -0.5        1.75
0.5        -0.5           2
0.5        -0.5        2.25
0.5        -0.5         2.5
0.5        -0.5        2.75
0.5        -0.5           3
0.5        -0.5        3.25
0.5        -0.5         3.5
0.5        -0.5        3.75
0.5        -0.5           4
0.5        -0.5        4.25
0.5        -0.5         4.5
0.5        -0.5        4.75
0.5        -0.5           5
0.5        -0.5        5.25
0.5        -0.5         5.5
0.5        -0.5        5.75
0.5        -0.5           6
0.5        -0.5        6.25
0.5        -0.5         6.5
0.5        -0.5        6.75
0.5        -0.5           7
0.5        -0.5        7.25
0.5        -0.5         7.5
0.5        -0.5        7.75
0.5        -0.5           8
0.5        -0.5        8.25
0.5        -0.5         8.5
0.5        -0.5        8.75
0.5        -0.5           9
0.5        -0.5        9.25
0.5        -0.5         9.5
0.5        -0.5        9.75
0.5         0.5        0.25
0.5         0.5         0.5
0.5         0.5        0.75
0.5         0.5           1
0.5         0.5        1.25
0.5         0.5         1.5
0.5         0.5        1.75
0.5         0.5           2
0.5         0.5        2.25
0.5         0.5         2.5
0.5         0.5        2.75
0.5         0.5           3
0.5         0.5        3.25
0.5         0.5         3.5
0.5         0.5        3.75
0.5         0.5           4
0.5         0.5        4.25
0.5         0.5         4.5
0.5         0.5        4.75
0.5         0.5           5
0.5         0.5        5.25
0.5         0.5         5.5
0.5         0.5        5.75
0.5         0.5           6
0.5         0.5        6.25
0.5         0.5         6.5
0.5         0.5        6.75
0.5         0.5           7
0.5         0.5        7.25
0.5         0.5         7.5
0.5         0.5        7.75
0.5         0.5           8
0.5         0.5        8.25
0.5         0.5         8.5
0.5         0.5        8.75
0.5         0.5           9
0.5         0.5        9.25
0.5         0.5         9.5
0.5         0.5        9.75
-0.5         0.5        0.25
-0.5         0.5         0.5
-0.5         0.5        0.75
-0.5         0.5           1
-0.5         0.5        1.25
-0.5         0.5         1.5
-0.5         0.5        1.75
-0.5         0.5           2
-0.5         0.5        2.25
-0.5         0.5         2.5
-0.5         0.5        2.75
-0.5         0.5           3
-0.5         0.5        3.25
-0.5         0.5         3.5
-0.5         0.5        3.75
-0.5         0.5           4
-0.5         0.5        4.25
-0.5         0.5         4.5
-0.5         0.5        4.75
-0.5         0.5           5
-0.5         0.5        5.25
-0.5         0.5         5.5
-0.5         0.5        5.75
-0.5         0.5           6
-0.5         0.5        6.25
-0.5         0.5         6.5
-0.5         0.5        6.75
-0.5         0.5           7
-0.5         0.5        7.25
-0.5         0.5         7.5
-0.5         0.5        7.75
-0.5         0.5           8
-0.5         0.5        8.25
-0.5         0.5         8.5
-0.5         0.5        8.75
-0.5         0.5           9
-0.5         0.5        9.25
-0.5         0.5         9.5
-0.5         0.5        9.75
-0.25       -0.25           0
-0.25  6.8756e-13           0
-0.25        0.25           0
-6.8756e-13       -0.25           0
-3.7821e-24           0           0
6.8756e-13        0.25           0
0.25       -0.25           0
0.25 -6.8756e-13           0
0.25        0.25           0
-0.25        -0.5        0.25
-0.25        -0.5         0.5
-0.25        -0.5        0.75
-0.25        -0.5           1
-0.25        -0.5        1.25
-0.25        -0.5         1.5
-0.25        -0.5        1.75
-0.25        -0.5           2
-0.25        -0.5        2.25
-0.25        -0.5         2.5
-0.25        -0.5        2.75
-0.25        -0.5           3
-0.25        -0.5        3.25
-0.25        -0.5         3.5
-0.25        -0.5        3.75
-0.25        -0.5           4
-0.25        -0.5        4.25
-0.25        -0.5         4.5
-0.25        -0.5        4.75
-0.25        -0.5           5
-0.25        -0.5        5.25
-0.25        -0.5         5.5
-0.25        -0.5        5.75
-0.25        -0.5           6
-0.25        -0.5        6.25
-0.25        -0.5         6.5
-0.25        -0.5        6.75
-0.25        -0.5           7
-0.25        -0.5        7.25
-0.25        -0.5         7.5
-0.25        -0.5        7.75
-0.25        -0.5           8
-0.25        -0.5        8.25
-0.25        -0.5         8.5
-0.25        -0.5        8.75
-0.25        -0.5           9
-0.25        -0.5        9.25
-0.25        -0.5         9.5
-0.25        -0.5        9.75
-1.3751e-12        -0.5        0.25
-1.3751e-12        -0.5         0.5
-1.3751e-12        -0.5        0.75
-1.3751e-12        -0.5           1
-1.3751e-12        -0.5        1.25
-1.3751e-12        -0.5         1.5
-1.3751e-12        -0.5        1.75
-1.3751e-12        -0.5           2
-1.3751e-12        -0.5        2.25
-1.3751e-12        -0.5         2.5
-1.3751e-12        -0.5        2.75
-1.3751e-12        -0.5           3
-1.3751e-12        -0.5        3.25
-1.3751e-12        -0.5         3.5
-1.3751e-12        -0.5        3.75
-1.3751e-12        -0.5           4
-1.3751e-12        -0.5        4.25
-1.3751e-12        -0.5         4.5
-1.3751e-12        -0.5        4.75
-1.3751e-12        -0.5           5
-1.3751e-12        -0.5        5.25
-1.3751e-12        -0.5         5.5
-1.3751e-12        -0.5        5.75
-1.3751e-12        -0.5           6
-1.3751e-12        -0.5        6.25
-1.3751e-12        -0.5         6.5
-1.3751e-12        -0.5        6.75
-1.3751e-12        -0.5           7
-1.3751e-12        -0.5        7.25
-1.3751e-12        -0.5         7.5
-1.3751e-12        -0.5        7.75
-1.3751e-12        -0.5           8
-1.3751e-12        -0.5        8.25
-1.3751e-12        -0.5         8.5
-1.3751e-12        -0.5        8.75
-1.3751e-12        -0.5           9
-1.3751e-12        -0.5        9.25
-1.3751e-12        -0.5         9.5
-1.3751e-12        -0.5        9.75
0.25        -0.5        0.25
0.25        -0.5         0.5
0.25        -0.5        0.75
0.25        -0.5           1
0.25        -0.5        1.25
0.25        -0.5         1.5
0.25        -0.5        1.75
0.25        -0.5           2
0.25        -0.5        2.25
0.25        -0.5         2.5
0.25        -0.5        2.75
0.25        -0.5           3
0.25        -0.5        3.25
0.25        -0.5         3.5
0.25        -0.5        3.75
0.25        -0.5           4
0.25        -0.5        4.25
0.25        -0.5         4.5
0.25        -0.5        4.75
0.25        -0.5           5
0.25        -0.5        5.25
0.25        -0.5         5.5
0.25        -0.5        5.75
0.25        -0.5           6
0.25        -0.5        6.25
0.25        -0.5         6.5
0.25        -0.5        6.75
0.25        -0.5           7
0.25        -0.5        7.25
0.25        -0.5         7.5
0.25        -0.5        7.75
0.25        -0.5           8
0.25        -0.5        8.25
0.25        -0.5         8.5
0.25        -0.5        8.75
0.25        -0.5           9
0.25        -0.5        9.25
0.25        -0.5         9.5
0.25        -0.5        9.75
0.5       -0.25        0.25
0.5       -0.25         0.5
0.5       -0.25        0.75
0.5       -0.25           1
0.5       -0.25        1.25
0.5       -0.25         1.5
0.5       -0.25        1.75
0.5       -0.25           2
0.5       -0.25        2.25
0.5       -0.25         2.5
0.5       -0.25        2.75
0.5       -0.25           3
0.5       -0.25        3.25
0.5       -0.25         3.5
0.5       -0.25        3.75
0.5       -0.25           4
0.5       -0.25        4.25
[...]
POINT_DATA 1025
VECTORS displacement double
0  0  0
0  0  0
0  0  0
0  0  0
-0.19352     0.63795    -0.15136
-0.63795    -0.19352    -0.15136
0.19352    -0.63795    -0.15136
0.63795     0.19352    -0.15136
0  0  0
0  0  0
0  0  0
0  0  0
0  0  0
0  0  0
0  0  0
0  0  0
0  0  0
0  0  0
0  0  0
0  0  0
-0.30463     0.43008    -0.16508
-0.41573     0.22221    -0.14212
-0.52684    0.014347    -0.12367
-0.43008    -0.30463    -0.16508
-0.22221    -0.41573    -0.14212
-0.014347    -0.52684    -0.12367
0.30463    -0.43008    -0.16508
0.41573    -0.22221    -0.14212
0.52684   -0.014347    -0.12367
0.43008     0.30463    -0.16508
0.22221     0.41573    -0.14212
0.014347     0.52684    -0.12367
0.064719   -0.048725  -0.0013238
0.14351    -0.10192  -0.0063181
0.22723    -0.14376   -0.010342
0.31502    -0.17422   -0.013978
0.40591    -0.19281   -0.017438
0.4984    -0.19919   -0.020823
0.59091    -0.19327   -0.024196
0.68182    -0.17515   -0.027571
0.76954    -0.14516    -0.03095
0.85252    -0.10384   -0.034331
0.9293   -0.051894   -0.037711
0.99854   0.0097481   -0.041092
1.059    0.080008   -0.044472
1.1097     0.15765   -0.047853
1.1496     0.24131   -0.051233
1.1781     0.32952   -0.054614
1.1947     0.42072   -0.057994
1.1991     0.51332   -0.061375
1.1912     0.60568   -0.064756
1.1711     0.69619   -0.068136
1.1393     0.78324   -0.071517
1.0962     0.86532   -0.074897
1.0426     0.94098   -0.078278
0.9795      1.0089   -0.081658
0.90797      1.0678   -0.085039
0.82926      1.1168   -0.088419
0.74477       1.155     -0.0918
0.65597      1.1816   -0.095181
0.56444      1.1962   -0.098561
0.47177      1.1986    -0.10194
0.37959      1.1888    -0.10532
0.28954      1.1668     -0.1087
0.20318      1.1331    -0.11208
0.12206      1.0883    -0.11543
0.047595      1.0331    -0.11873
-0.018873     0.96838    -0.12206
-0.076186     0.89509    -0.12574
-0.12363     0.81417    -0.13088
-0.16166     0.72727      -0.139
0.048725    0.064719  -0.0013238
0.10192     0.14351  -0.0063181
0.14376     0.22723   -0.010342
0.17422     0.31502   -0.013978
0.19281     0.40591   -0.017438
0.19919      0.4984   -0.020823
0.19327     0.59091   -0.024196
0.17515     0.68182   -0.027571
0.14516     0.76954    -0.03095
0.10384     0.85252   -0.034331
0.051894      0.9293   -0.037711
-0.0097481     0.99854   -0.041092
-0.080008       1.059   -0.044472
-0.15765      1.1097   -0.047853
-0.24131      1.1496   -0.051233
-0.32952      1.1781   -0.054614
-0.42072      1.1947   -0.057994
-0.51332      1.1991   -0.061375
-0.60568      1.1912   -0.064756
-0.69619      1.1711   -0.068136
-0.78324      1.1393   -0.071517
-0.86532      1.0962   -0.074897
-0.94098      1.0426   -0.078278
-1.0089      0.9795   -0.081658
-1.0678     0.90797   -0.085039
-1.1168     0.82926   -0.088419
-1.155     0.74477     -0.0918
-1.1816     0.65597   -0.095181
-1.1962     0.56444   -0.098561
-1.1986     0.47177    -0.10194
-1.1888     0.37959    -0.10532
-1.1668     0.28954     -0.1087
-1.1331     0.20318    -0.11208
-1.0883     0.12206    -0.11543
-1.0331    0.047595    -0.11873
-0.96838   -0.018873    -0.12206
-0.89509   -0.076186    -0.12574
-0.81417    -0.12363    -0.13088
-0.72727    -0.16166      -0.139
-0.064719    0.048725  -0.0013238
-0.14351     0.10192  -0.0063181
-0.22723     0.14376   -0.010342
-0.31502     0.17422   -0.013978
-0.40591     0.19281   -0.017438
-0.4984     0.19919   -0.020823
-0.59091     0.19327   -0.024196
-0.68182     0.17515   -0.027571
-0.76954     0.14516    -0.03095
-0.85252     0.10384   -0.034331
-0.9293    0.051894   -0.037711
-0.99854  -0.0097481   -0.041092
-1.059   -0.080008   -0.044472
-1.1097    -0.15765   -0.047853
-1.1496    -0.24131   -0.051233
-1.1781    -0.32952   -0.054614
-1.1947    -0.42072   -0.057994
-1.1991    -0.51332   -0.061375
-1.1912    -0.60568   -0.064756
-1.1711    -0.69619   -0.068136
-1.1393    -0.78324   -0.071517
-1.0962    -0.86532   -0.074897
-1.0426    -0.94098   -0.078278
-0.9795     -1.0089   -0.081658
-0.90797     -1.0678   -0.085039
-0.82926     -1.1168   -0.088419
-0.74477      -1.155     -0.0918
-0.65597     -1.1816   -0.095181
-0.56444     -1.1962   -0.098561
-0.47177     -1.1986    -0.10194
-0.37959     -1.1888    -0.10532
-0.28954     -1.1668     -0.1087
-0.20318     -1.1331    -0.11208
-0.12206     -1.0883    -0.11543
-0.047595     -1.0331    -0.11873
0.018873    -0.96838    -0.12206
0.076186    -0.89509    -0.12574
0.12363    -0.81417    -0.13088
0.16166    -0.72727      -0.139
-0.048725   -0.064719  -0.0013238
-0.10192    -0.14351  -0.0063181
-0.14376    -0.22723   -0.010342
-0.17422    -0.31502   -0.013978
-0.19281    -0.40591   -0.017438
-0.19919     -0.4984   -0.020823
-0.19327    -0.59091   -0.024196
-0.17515    -0.68182   -0.027571
-0.14516    -0.76954    -0.03095
-0.10384    -0.85252   -0.034331
-0.051894     -0.9293   -0.037711
0.0097481    -0.99854   -0.041092
0.080008      -1.059   -0.044472
0.15765     -1.1097   -0.047853
0.24131     -1.1496   -0.051233
0.32952     -1.1781   -0.054614
0.42072     -1.1947   -0.057994
0.51332     -1.1991   -0.061375
0.60568     -1.1912   -0.064756
0.69619     -1.1711   -0.068136
0.78324     -1.1393   -0.071517
0.86532     -1.0962   -0.074897
0.94098     -1.0426   -0.078278
1.0089     -0.9795   -0.081658
1.0678    -0.90797   -0.085039
1.1168    -0.82926   -0.088419
1.155    -0.74477     -0.0918
1.1816    -0.65597   -0.095181
1.1962    -0.56444   -0.098561
1.1986    -0.47177    -0.10194
1.1888    -0.37959    -0.10532
1.1668    -0.28954     -0.1087
1.1331    -0.20318    -0.11208
1.0883    -0.12206    -0.11543
1.0331   -0.047595    -0.11873
0.96838    0.018873    -0.12206
0.89509    0.076186    -0.12574
0.81417     0.12363    -0.13088
0.72727     0.16166      -0.139
0  0  0
0  0  0
0  0  0
0  0  0
0  0  0
0  0  0
0  0  0
0  0  0
0  0  0
0.063253    -0.02183   -0.019141
0.13269   -0.040106   -0.026516
0.20551   -0.050843   -0.030481
0.27897   -0.051883   -0.033949
0.35179    -0.04324   -0.037324
0.42277    -0.02502   -0.040694
0.49071   0.0024423   -0.044068
0.55441    0.038656   -0.047447
0.61276    0.082981   -0.050827
0.66474     0.13464   -0.054207
0.70943     0.19271   -0.057588
0.74604     0.25619   -0.060969
0.77394     0.32396   -0.064349
0.79262     0.39481    -0.06773
0.80177     0.46752    -0.07111
0.80121      0.5408   -0.074491
0.79097     0.61336   -0.077871
0.77122     0.68393   -0.081252
0.74231     0.75126   -0.084632
0.70474     0.81418   -0.088013
0.65918     0.87158   -0.091393
0.60643     0.92244   -0.094774
0.54741     0.96588   -0.098155
0.48317      1.0011    -0.10154
0.41482      1.0276    -0.10492
0.34358      1.0447     -0.1083
0.2707      1.0523    -0.11168
0.19745      1.0502    -0.11506
0.12512      1.0384    -0.11844
0.054991      1.0172    -0.12182
-0.011713     0.98684     -0.1252
-0.073816     0.94794    -0.12858
-0.13023     0.90117    -0.13196
-0.17995     0.84736    -0.13532
-0.2221     0.78743    -0.13868
-0.25587     0.72232    -0.14205
-0.28046     0.65294    -0.14564
-0.29534      0.5802    -0.14997
-0.30103     0.50593    -0.15581
0.063211   0.0070643  -0.0027788
0.12373    0.020216   -0.006612
0.18585     0.04092   -0.010578
0.24512    0.069513   -0.014084
0.3      0.1057   -0.017453
0.34955     0.14885   -0.020816
0.39294     0.19817    -0.02419
0.42941     0.25281   -0.027569
0.45834     0.31178    -0.03095
0.47921     0.37407   -0.034331
0.49165     0.43857   -0.037711
0.49546     0.50415   -0.041092
0.49055     0.56966   -0.044472
0.47703     0.63394   -0.047853
0.45512     0.69587   -0.051233
0.42521     0.75436   -0.054614
0.38782     0.80837   -0.057994
0.34362     0.85696   -0.061375
0.29338     0.89928   -0.064756
0.23798     0.93458   -0.068136
0.17839     0.96225   -0.071517
0.11568     0.98178   -0.074897
0.050924     0.99285   -0.078278
-0.014723     0.99526   -0.081658
-0.08011     0.98896   -0.085039
-0.14409     0.97406   -0.088419
-0.20554     0.95083     -0.0918
-0.26337     0.91968    -0.09518
-0.31658     0.88115   -0.098561
-0.36422     0.83592    -0.10194
-0.40545     0.78479    -0.10532
-0.43957     0.72865     -0.1087
-0.46595      0.6685    -0.11209
-0.48415     0.60539    -0.11546
-0.49383     0.54043    -0.11882
-0.49472     0.47472     -0.1221
-0.4866     0.40934    -0.12528
-0.46929     0.34522    -0.12865
-0.44376     0.28306    -0.13366
0.056755    0.038379    0.012523
0.11332    0.083234    0.012995
0.16508     0.13528    0.009477
0.20981     0.19347   0.0058946
0.24641     0.25702   0.0024506
0.27423     0.32483 -0.00093772
0.2928     0.39572  -0.0043155
0.30182     0.46844  -0.0076938
0.30115     0.54172   -0.011073
0.29078     0.61426   -0.014454
0.27091      0.6848   -0.017834
0.24189     0.75209   -0.021215
0.20422     0.81494   -0.024596
0.15856     0.87226   -0.027976
0.10573     0.92304   -0.031357
0.046635     0.96638   -0.034737
-0.017669      1.0015   -0.038118
-0.086056      1.0278   -0.041498
-0.15733      1.0449   -0.044879
-0.23022      1.0524   -0.048259
-0.30347      1.0501    -0.05164
-0.37578      1.0382    -0.05502
-0.44587      1.0169   -0.058401
-0.51252      0.9864   -0.061782
-0.57456     0.94739   -0.065162
-0.6309     0.90053   -0.068543
-0.68053     0.84662   -0.071923
-0.7226     0.78662   -0.075304
-0.75637     0.72158   -0.078684
-0.78123     0.65264   -0.082065
-0.79675     0.58103   -0.085446
-0.80267     0.50798   -0.088827
-0.79887     0.43481   -0.092207
-0.78543     0.36278   -0.095577
-0.76255     0.29318   -0.098921
-0.73057     0.22727    -0.10222
-0.68987     0.16617    -0.10556
-0.64093     0.11073    -0.10934
-0.58454    0.060628    -0.11504
0.02183    0.063253   -0.019141
0.040106     0.13269   -0.026516
0.050843     0.20551   -0.030481
0.051883     0.27897   -0.033949
0.04324     0.35179   -0.037324
0.02502     0.42277   -0.040694
-0.0024423     0.49071   -0.044068
-0.038656     0.55441   -0.047447
-0.082981     0.61276   -0.050827
-0.13464     0.66474   -0.054207
-0.19271     0.70943   -0.057588
-0.25619     0.74604   -0.060969
-0.32396     0.77394   -0.064349
-0.39481     0.79262    -0.06773
-0.46752     0.80177    -0.07111
-0.5408     0.80121   -0.074491
-0.61336     0.79097   -0.077871
-0.68393     0.77122   -0.081252
-0.75126     0.74231   -0.084632
-0.81418     0.70474   -0.088013
-0.87158     0.65918   -0.091393
-0.92244     0.60643   -0.094774
-0.96588     0.54741   -0.098155
-1.0011     0.48317    -0.10154
-1.0276     0.41482    -0.10492
-1.0447     0.34358     -0.1083
-1.0523      0.2707    -0.11168
-1.0502     0.19745    -0.11506
-1.0384     0.12512    -0.11844
-1.0172    0.054991    -0.12182
-0.98684   -0.011713     -0.1252
-0.94794   -0.073816    -0.12858
-0.90117    -0.13023    -0.13196
-0.84736    -0.17995    -0.13532
-0.78743     -0.2221    -0.13868
-0.72232    -0.25587    -0.14205
-0.65294    -0.28046    -0.14564
-0.5802    -0.29534    -0.14997
-0.50593    -0.30103    -0.15581
-0.0070643    0.063211  -0.0027788
-0.020216     0.12373   -0.006612
-0.04092     0.18585   -0.010578
-0.069513     0.24512   -0.014084
-0.1057         0.3   -0.017453
-0.14885     0.34955   -0.020816
-0.19817     0.39294    -0.02419
-0.25281     0.42941   -0.027569
-0.31178     0.45834    -0.03095
-0.37407     0.47921   -0.034331
-0.43857     0.49165   -0.037711
-0.50415     0.49546   -0.041092
-0.56966     0.49055   -0.044472
-0.63394     0.47703   -0.047853
-0.69587     0.45512   -0.051233
-0.75436     0.42521   -0.054614
-0.80837     0.38782   -0.057994
-0.85696     0.34362   -0.061375
-0.89928     0.29338   -0.064756
-0.93458     0.23798   -0.068136
-0.96225     0.17839   -0.071517
-0.98178     0.11568   -0.074897
-0.99285    0.050924   -0.078278
-0.99526   -0.014723   -0.081658
-0.98896    -0.08011   -0.085039
-0.97406    -0.14409   -0.088419
-0.95083    -0.20554     -0.0918
-0.91968    -0.26337    -0.09518
-0.88115    -0.31658   -0.098561
-0.83592    -0.36422    -0.10194
-0.78479    -0.40545    -0.10532
-0.72865    -0.43957     -0.1087
-0.6685    -0.46595    -0.11209
-0.60539    -0.48415    -0.11546
-0.54043    -0.49383    -0.11882
-0.47472    -0.49472     -0.1221
-0.40934     -0.4866    -0.12528
-0.34522    -0.46929    -0.12865
-0.28306    -0.44376    -0.13366
-0.038379    0.056755    0.012523
-0.083234     0.11332    0.012995
-0.13528     0.16508    0.009477
-0.19347     0.20981   0.0058946
-0.25702     0.24641   0.0024506
-0.32483     0.27423 -0.00093772
-0.39572      0.2928  -0.0043155
-0.46844     0.30182  -0.0076938
-0.54172     0.30115   -0.011073
-0.61426     0.29078   -0.014454
-0.6848     0.27091   -0.017834
-0.75209     0.24189   -0.021215
-0.81494     0.20422   -0.024596
-0.87226     0.15856   -0.027976
-0.92304     0.10573   -0.031357
-0.96638    0.046635   -0.034737
-1.0015   -0.017669   -0.038118
-1.0278   -0.086056   -0.041498
-1.0449    -0.15733   -0.044879
-1.0524    -0.23022   -0.048259
-1.0501    -0.30347    -0.05164
-1.0382    -0.37578    -0.05502
-1.0169    -0.44587   -0.058401
-0.9864    -0.51252   -0.061782
-0.94739    -0.57456   -0.065162
-0.90053     -0.6309   -0.068543
-0.84662    -0.68053   -0.071923
-0.78662     -0.7226   -0.075304
-0.72158    -0.75637   -0.078684
-0.65264    -0.78123   -0.082065
-0.58103    -0.79675   -0.085446
-0.50798    -0.80267   -0.088827
-0.43481    -0.79887   -0.092207
-0.36278    -0.78543   -0.095577
-0.29318    -0.76255   -0.098921
-0.22727    -0.73057    -0.10222
-0.16617    -0.68987    -0.10556
-0.11073    -0.64093    -0.10934
-0.060628    -0.58454    -0.11504
-0.063253     0.02183   -0.019141
-0.13269    0.040106   -0.026516
-0.20551    0.050843   -0.030481
-0.27897    0.051883   -0.033949
-0.35179     0.04324   -0.037324
-0.42277     0.02502   -0.040694
-0.49071  -0.0024423   -0.044068
-0.55441   -0.038656   -0.047447
-0.61276   -0.082981   -0.050827
-0.66474    -0.13464   -0.054207
-0.70943    -0.19271   -0.057588
-0.74604    -0.25619   -0.060969
-0.77394    -0.32396   -0.064349
-0.79262    -0.39481    -0.06773
-0.80177    -0.46752    -0.07111
-0.80121     -0.5408   -0.074491
-0.79097    -0.61336   -0.077871
-0.77122    -0.68393   -0.081252
-0.74231    -0.75126   -0.084632
-0.70474    -0.81418   -0.088013
-0.65918    -0.87158   -0.091393
-0.60643    -0.92244   -0.094774
-0.54741    -0.96588   -0.098155
-0.48317     -1.0011    -0.10154
-0.41482     -1.0276    -0.10492
-0.34358     -1.0447     -0.1083
-0.2707     -1.0523    -0.11168
-0.19745     -1.0502    -0.11506
-0.12512     -1.0384    -0.11844
-0.054991     -1.0172    -0.12182
0.011713    -0.98684     -0.1252
0.073816    -0.94794    -0.12858
0.13023    -0.90117    -0.13196
0.17995    -0.84736    -0.13532
0.2221    -0.78743    -0.13868
0.25587    -0.72232    -0.14205
0.28046    -0.65294    -0.14564
0.29534     -0.5802    -0.14997
0.30103    -0.50593    -0.15581
-0.063211  -0.0070643  -0.0027788
-0.12373   -0.020216   -0.006612
-0.18585    -0.04092   -0.010578
-0.24512   -0.069513   -0.014084
-0.3     -0.1057   -0.017453
-0.34955    -0.14885   -0.020816
-0.39294    -0.19817    -0.02419
-0.42941    -0.25281   -0.027569
-0.45834    -0.31178    -0.03095
-0.47921    -0.37407   -0.034331
-0.49165    -0.43857   -0.037711
-0.49546    -0.50415   -0.041092
-0.49055    -0.56966   -0.044472
-0.47703    -0.63394   -0.047853
-0.45512    -0.69587   -0.051233
-0.42521    -0.75436   -0.054614
-0.38782    -0.80837   -0.057994
-0.34362    -0.85696   -0.061375
-0.29338    -0.89928   -0.064756
-0.23798    -0.93458   -0.068136
-0.17839    -0.96225   -0.071517
-0.11568    -0.98178   -0.074897
-0.050924    -0.99285   -0.078278
0.014723    -0.99526   -0.081658
0.08011    -0.98896   -0.085039
0.14409    -0.97406   -0.088419
0.20554    -0.95083     -0.0918
0.26337    -0.91968    -0.09518
0.31658    -0.88115   -0.098561
0.36422    -0.83592    -0.10194
0.40545    -0.78479    -0.10532
0.43957    -0.72865     -0.1087
0.46595     -0.6685    -0.11209
0.48415    -0.60539    -0.11546
0.49383    -0.54043    -0.11882
0.49472    -0.47472     -0.1221
0.4866    -0.40934    -0.12528
0.46929    -0.34522    -0.12865
0.44376    -0.28306    -0.13366
-0.056755   -0.038379    0.012523
-0.11332   -0.083234    0.012995
-0.16508    -0.13528    0.009477
-0.20981    -0.19347   0.0058946
-0.24641    -0.25702   0.0024506
-0.27423    -0.32483 -0.00093772
-0.2928    -0.39572  -0.0043155
-0.30182    -0.46844  -0.0076938
-0.30115    -0.54172   -0.011073
-0.29078    -0.61426   -0.014454
-0.27091     -0.6848   -0.017834
-0.24189    -0.75209   -0.021215
-0.20422    -0.81494   -0.024596
-0.15856    -0.87226   -0.027976
-0.10573    -0.92304   -0.031357
-0.046635    -0.96638   -0.034737
0.017669     -1.0015   -0.038118
0.086056     -1.0278   -0.041498
0.15733     -1.0449   -0.044879
0.23022     -1.0524   -0.048259
0.30347     -1.0501    -0.05164
0.37578     -1.0382    -0.05502
0.44587     -1.0169   -0.058401
0.51252     -0.9864   -0.061782
0.57456    -0.94739   -0.065162
0.6309    -0.90053   -0.068543
0.68053    -0.84662   -0.071923
0.7226    -0.78662   -0.075304
0.75637    -0.72158   -0.078684
0.78123    -0.65264   -0.082065
0.79675    -0.58103   -0.085446
0.80267    -0.50798   -0.088827
0.79887    -0.43481   -0.092207
0.78543    -0.36278   -0.095577
0.76255    -0.29318   -0.098921
0.73057    -0.22727    -0.10222
0.68987    -0.16617    -0.10556
0.64093    -0.11073    -0.10934
0.58454   -0.060628    -0.11504
-0.02183   -0.063253   -0.019141
-0.040106    -0.13269   -0.026516
-0.050843    -0.20551   -0.030481
-0.051883    -0.27897   -0.033949
-0.04324    -0.35179   -0.037324
-0.02502    -0.42277   -0.040694
0.0024423    -0.49071   -0.044068
0.038656    -0.55441   -0.047447
0.082981    -0.61276   -0.050827
0.13464    -0.66474   -0.054207
0.19271    -0.70943   -0.057588
0.25619    -0.74604   -0.060969
0.32396    -0.77394   -0.064349
0.39481    -0.79262    -0.06773
0.46752    -0.80177    -0.07111
0.5408    -0.80121   -0.074491
0.61336    -0.79097   -0.077871
0.68393    -0.77122   -0.081252
0.75126    -0.74231   -0.084632
0.81418    -0.70474   -0.088013
0.87158    -0.65918   -0.091393
0.92244    -0.60643   -0.094774
0.96588    -0.54741   -0.098155
1.0011    -0.48317    -0.10154
1.0276    -0.41482    -0.10492
1.0447    -0.34358     -0.1083
1.0523     -0.2707    -0.11168
1.0502    -0.19745    -0.11506
1.0384    -0.12512    -0.11844
1.0172   -0.054991    -0.12182
0.98684    0.011713     -0.1252
0.94794    0.073816    -0.12858
0.90117     0.13023    -0.13196
0.84736     0.17995    -0.13532
0.78743      0.2221    -0.13868
0.72232     0.25587    -0.14205
0.65294     0.28046    -0.14564
0.5802     0.29534    -0.14997
0.50593     0.30103    -0.15581
0.0070643   -0.063211  -0.0027788
0.020216    -0.12373   -0.006612
0.04092    -0.18585   -0.010578
0.069513    -0.24512   -0.014084
0.1057        -0.3   -0.017453
0.14885    -0.34955   -0.020816
0.19817    -0.39294    -0.02419
0.25281    -0.42941   -0.027569
0.31178    -0.45834    -0.03095
0.37407    -0.47921   -0.034331
0.43857    -0.49165   -0.037711
0.50415    -0.49546   -0.041092
0.56966    -0.49055   -0.044472
0.63394    -0.47703   -0.047853
0.69587    -0.45512   -0.051233
0.75436    -0.42521   -0.054614
0.80837    -0.38782   -0.057994
0.85696    -0.34362   -0.061375
0.89928    -0.29338   -0.064756
0.93458    -0.23798   -0.068136
0.96225    -0.17839   -0.071517
0.98178    -0.11568   -0.074897
0.99285   -0.050924   -0.078278
0.99526    0.014723   -0.081658
0.98896     0.08011   -0.085039
0.97406     0.14409   -0.088419
0.95083     0.20554     -0.0918
0.91968     0.26337    -0.09518
0.88115     0.31658   -0.098561
0.83592     0.36422    -0.10194
0.78479     0.40545    -0.10532
0.72865     0.43957     -0.1087
0.6685     0.46595    -0.11209
0.60539     0.48415    -0.11546
0.54043     0.49383    -0.11882
0.47472     0.49472     -0.1221
0.40934      0.4866    -0.12528
0.34522     0.46929    -0.12865
0.28306     0.44376    -0.13366
0.038379   -0.056755    0.012523
0.083234    -0.11332    0.012995
0.13528    -0.16508    0.009477
0.19347    -0.20981   0.0058946
0.25702    -0.24641   0.0024506
0.32483    -0.27423 -0.00093772
0.39572     -0.2928  -0.0043155