# vtk DataFile Version 3.0
VTK Output
ASCII
DATASET UNSTRUCTURED_GRID

POINTS 189 float
-0.5        -0.5           0
0.5        -0.5           0
0.5         0.5           0
-0.5         0.5           0
-0.5         -0.5           10
0.5         -0.5           10
0.5          0.5           10
-0.5          0.5           10
-1.3751e-12        -0.5           0
0.5 -1.3751e-12           0
1.3751e-12         0.5           0
-0.5  1.3751e-12           0
-1.37512e-12         -0.5           10
0.5 -1.37512e-12           10
1.37512e-12          0.5           10
-0.5  1.37512e-12           10
-0.5        -0.5         0.5
-0.5        -0.5           1
-0.5        -0.5         1.5
-0.5        -0.5           2
-0.5        -0.5         2.5
-0.5        -0.5           3
-0.5        -0.5         3.5
-0.5        -0.5           4
-0.5        -0.5         4.5
-0.5        -0.5           5
-0.5        -0.5         5.5
-0.5        -0.5           6
-0.5        -0.5         6.5
-0.5        -0.5           7
-0.5        -0.5         7.5
-0.5        -0.5           8
-0.5        -0.5         8.5
-0.5        -0.5           9
-0.5        -0.5         9.5
0.5        -0.5         0.5
0.5        -0.5           1
0.5        -0.5         1.5
0.5        -0.5           2
0.5        -0.5         2.5
0.5        -0.5           3
0.5        -0.5         3.5
0.5        -0.5           4
0.5        -0.5         4.5
0.5        -0.5           5
0.5        -0.5         5.5
0.5        -0.5           6
0.5        -0.5         6.5
0.5        -0.5           7
0.5        -0.5         7.5
0.5        -0.5           8
0.5        -0.5         8.5
0.5        -0.5           9
0.5        -0.5         9.5
0.5         0.5         0.5
0.5         0.5           1
0.5         0.5         1.5
0.5         0.5           2
0.5         0.5         2.5
0.5         0.5           3
0.5         0.5         3.5
0.5         0.5           4
0.5         0.5         4.5
0.5         0.5           5
0.5         0.5         5.5
0.5         0.5           6
0.5         0.5         6.5
0.5         0.5           7
0.5         0.5         7.5
0.5         0.5           8
0.5         0.5         8.5
0.5         0.5           9
0.5         0.5         9.5
-0.5         0.5         0.5
-0.5         0.5           1
-0.5         0.5         1.5
-0.5         0.5           2
-0.5         0.5         2.5
-0.5         0.5           3
-0.5         0.5         3.5
-0.5         0.5           4
-0.5         0.5         4.5
-0.5         0.5           5
-0.5         0.5         5.5
-0.5         0.5           6
-0.5         0.5         6.5
-0.5         0.5           7
-0.5         0.5         7.5
-0.5         0.5           8
-0.5         0.5         8.5
-0.5         0.5           9
-0.5         0.5         9.5
-3.7821e-24           0           0
-1.3751e-12        -0.5         0.5
-1.3751e-12        -0.5           1
-1.3751e-12        -0.5         1.5
-1.3751e-12        -0.5           2
-1.3751e-12        -0.5         2.5
-1.3751e-12        -0.5           3
-1.3751e-12        -0.5         3.5
-1.3751e-12        -0.5           4
-1.3751e-12        -0.5         4.5
-1.3751e-12        -0.5           5
-1.3751e-12        -0.5         5.5
-1.3751e-12        -0.5           6
-1.3751e-12        -0.5         6.5
-1.3751e-12        -0.5           7
-1.3751e-12        -0.5         7.5
-1.3751e-12        -0.5           8
-1.3751e-12        -0.5         8.5
-1.3751e-12        -0.5           9
-1.3751e-12        -0.5         9.5
0.5 -1.3751e-12         0.5
0.5 -1.3751e-12           1
0.5 -1.3751e-12         1.5
0.5 -1.3751e-12           2
0.5 -1.3751e-12         2.5
0.5 -1.3751e-12           3
0.5 -1.3751e-12         3.5
0.5 -1.3751e-12           4
0.5 -1.3751e-12         4.5
0.5 -1.3751e-12           5
0.5 -1.3751e-12         5.5
0.5 -1.3751e-12           6
0.5 -1.3751e-12         6.5
0.5 -1.3751e-12           7
0.5 -1.3751e-12         7.5
0.5 -1.3751e-12           8
0.5 -1.3751e-12         8.5
0.5 -1.3751e-12           9
0.5 -1.3751e-12         9.5
1.3751e-12         0.5         0.5
1.3751e-12         0.5           1
1.3751e-12         0.5         1.5
1.3751e-12         0.5           2
1.3751e-12         0.5         2.5
1.3751e-12         0.5           3
1.3751e-12         0.5         3.5
1.3751e-12         0.5           4
1.3751e-12         0.5         4.5
1.3751e-12         0.5           5
1.3751e-12         0.5         5.5
1.3751e-12         0.5           6
1.3751e-12         0.5         6.5
1.3751e-12         0.5           7
1.3751e-12         0.5         7.5
1.3751e-12         0.5           8
1.3751e-12         0.5         8.5
1.3751e-12         0.5           9
1.3751e-12         0.5         9.5
-0.5  1.3751e-12         0.5
-0.5  1.3751e-12           1
-0.5  1.3751e-12         1.5
-0.5  1.3751e-12           2
-0.5  1.3751e-12         2.5
-0.5  1.3751e-12           3
-0.5  1.3751e-12         3.5
-0.5  1.3751e-12           4
-0.5  1.3751e-12         4.5
-0.5  1.3751e-12           5
-0.5  1.3751e-12         5.5
-0.5  1.3751e-12           6
-0.5  1.3751e-12         6.5
-0.5  1.3751e-12           7
-0.5  1.3751e-12         7.5
-0.5  1.3751e-12           8
-0.5  1.3751e-12         8.5
-0.5  1.3751e-12           9
-0.5  1.3751e-12         9.5
-3.78209e-24            0           10
-3.7821e-24           0         0.5
-3.7821e-24           0           1
-3.7821e-24           0         1.5
-3.7821e-24           0           2
-3.7821e-24           0         2.5
-3.7821e-24           0           3
-3.7821e-24           0         3.5
-3.7821e-24           0           4
-3.7821e-24           0         4.5
-3.7821e-24           0           5
-3.7821e-24           0         5.5
-3.7821e-24           0           6
-3.7821e-24           0         6.5
-3.7821e-24           0           7
-3.7821e-24           0         7.5
-3.7821e-24           0           8
-3.7821e-24           0         8.5
-3.7821e-24           0           9
-3.7821e-24           0         9.5

CELLS 80 720
8 0    8   92   11   16   93  170  150
8 16   93  170  150   17   94  171  151
8 17   94  171  151   18   95  172  152
8 18   95  172  152   19   96  173  153
8 19   96  173  153   20   97  174  154
8 20   97  174  154   21   98  175  155
8 21   98  175  155   22   99  176  156
8 22   99  176  156   23  100  177  157
8 23  100  177  157   24  101  178  158
8 24  101  178  158   25  102  179  159
8 25  102  179  159   26  103  180  160
8 26  103  180  160   27  104  181  161
8 27  104  181  161   28  105  182  162
8 28  105  182  162   29  106  183  163
8 29  106  183  163   30  107  184  164
8 30  107  184  164   31  108  185  165
8 31  108  185  165   32  109  186  166
8 32  109  186  166   33  110  187  167
8 33  110  187  167   34  111  188  168
8 34  111  188  168    4   12  169   15
8 11   92   10    3  150  170  131   73
8 150  170  131   73  151  171  132   74
8 151  171  132   74  152  172  133   75
8 152  172  133   75  153  173  134   76
8 153  173  134   76  154  174  135   77
8 154  174  135   77  155  175  136   78
8 155  175  136   78  156  176  137   79
8 156  176  137   79  157  177  138   80
8 157  177  138   80  158  178  139   81
8 158  178  139   81  159  179  140   82
8 159  179  140   82  160  180  141   83
8 160  180  141   83  161  181  142   84
8 161  181  142   84  162  182  143   85
8 162  182  143   85  163  183  144   86
8 163  183  144   86  164  184  145   87
8 164  184  145   87  165  185  146   88
8 165  185  146   88  166  186  147   89
8 166  186  147   89  167  187  148   90
8 167  187  148   90  168  188  149   91
8 168  188  149   91   15  169   14    7
8 8    1    9   92   93   35  112  170
8 93   35  112  170   94   36  113  171
8 94   36  113  171   95   37  114  172
8 95   37  114  172   96   38  115  173
8 96   38  115  173   97   39  116  174
8 97   39  116  174   98   40  117  175
8 98   40  117  175   99   41  118  176
8 99   41  118  176  100   42  119  177
8 100   42  119  177  101   43  120  178
8 101   43  120  178  102   44  121  179
8 102   44  121  179  103   45  122  180
8 103   45  122  180  104   46  123  181
8 104   46  123  181  105   47  124  182
8 105   47  124  182  106   48  125  183
8 106   48  125  183  107   49  126  184
8 107   49  126  184  108   50  127  185
8 108   50  127  185  109   51  128  186
8 109   51  128  186  110   52  129  187
8 110   52  129  187  111   53  130  188
8 111   53  130  188   12    5   13  169
8 92    9    2   10  170  112   54  131
8 170  112   54  131  171  113   55  132
8 171  113   55  132  172  114   56  133
8 172  114   56  133  173  115   57  134
8 173  115   57  134  174  116   58  135
8 174  116   58  135  175  117   59  136
8 175  117   59  136  176  118   60  137
8 176  118   60  137  177  119   61  138
8 177  119   61  138  178  120   62  139
8 178  120   62  139  179  121   63  140
8 179  121   63  140  180  122   64  141
8 180  122   64  141  181  123   65  142
8 181  123   65  142  182  124   66  143
8 182  124   66  143  183  125   67  144
8 183  125   67  144  184  126   68  145
8 184  126   68  145  185  127   69  146
8 185  127   69  146  186  128   70  147
8 186  128   70  147  187  129   71  148
8 187  129   71  148  188  130   72  149
8 188  130   72  149  169   13    6   14

CELL_TYPES 80
12
12
12
12
12
12
12
12
12
12
12
12
12
12
12
12
12
12
12
12
12
12
12
12
12
12
12
12
12
12
12
12
12
12
12
12
12
12
12
12
12
12
12
12
12
12
12
12
12
12
12
12
12
12
12
12
12
12
12
12
12
12
12
12
12
12
12
12
12
12
12
12
12
12
12
12
12
12
12
12

POINT_DATA 189
VECTORS displacement double
0  0  0
0  0  0
0  0  0
0  0  0
1           1   -0.049029
-1           1   -0.049029
-1          -1   -0.049029
1          -1   -0.049029
0  0  0
0  0  0
0  0  0
0  0  0
2.7505e-12           1   -0.044592
-1  2.7496e-12   -0.044592
-2.7491e-12          -1   -0.044592
1 -2.7507e-12   -0.044592
0.084973   -0.070592  -0.0024174
0.17936    -0.12854  -0.0048164
0.2816    -0.17096  -0.0070184
0.38921    -0.19686  -0.0092085
0.49954    -0.20561     -0.0114
0.60989    -0.19701   -0.013593
0.71753    -0.17125   -0.015785
0.81982    -0.12897   -0.017977
0.91424   -0.071222    -0.02017
0.99847  0.00058218   -0.022362
1.0704    0.084675   -0.024554
1.1284     0.17899   -0.026746
1.1708      0.2812   -0.028939
1.1968     0.38879   -0.031131
1.2056     0.49912   -0.033324
1.1971     0.60947   -0.035516
1.1714     0.71713   -0.037698
1.1291      0.8194   -0.039874
1.0711     0.91403   -0.042602
0.070592    0.084973  -0.0024174
0.12854     0.17936  -0.0048164
0.17096      0.2816  -0.0070184
0.19686     0.38921  -0.0092085
0.20561     0.49954     -0.0114
0.19701     0.60989   -0.013593
0.17125     0.71753   -0.015785
0.12897     0.81982   -0.017977
0.071222     0.91424    -0.02017
-0.00058218     0.99847   -0.022362
-0.084675      1.0704   -0.024554
-0.17899      1.1284   -0.026746
-0.2812      1.1708   -0.028939
-0.38879      1.1968   -0.031131
-0.49912      1.2056   -0.033324
-0.60947      1.1971   -0.035516
-0.71713      1.1714   -0.037698
-0.8194      1.1291   -0.039874
-0.91403      1.0711   -0.042602
-0.084973    0.070592  -0.0024174
-0.17936     0.12854  -0.0048164
-0.2816     0.17096  -0.0070184
-0.38921     0.19686  -0.0092085
-0.49954     0.20561     -0.0114
-0.60989     0.19701   -0.013593
-0.71753     0.17125   -0.015785
-0.81982     0.12897   -0.017977
-0.91424    0.071222    -0.02017
-0.99847 -0.00058218   -0.022362
-1.0704   -0.084675   -0.024554
-1.1284    -0.17899   -0.026746
-1.1708     -0.2812   -0.028939
-1.1968    -0.38879   -0.031131
-1.2056    -0.49912   -0.033324
-1.1971    -0.60947   -0.035516
-1.1714    -0.71713   -0.037698
-1.1291     -0.8194   -0.039874
-1.0711    -0.91403   -0.042602
-0.070592   -0.084973  -0.0024174
-0.12854    -0.17936  -0.0048164
-0.17096     -0.2816  -0.0070184
-0.19686    -0.38921  -0.0092085
-0.20561    -0.49954     -0.0114
-0.19701    -0.60989   -0.013593
-0.17125    -0.71753   -0.015785
-0.12897    -0.81982   -0.017977
-0.071222    -0.91424    -0.02017
0.00058218    -0.99847   -0.022362
0.084675     -1.0704   -0.024554
0.17899     -1.1284   -0.026746
0.2812     -1.1708   -0.028939
0.38879     -1.1968   -0.031131
0.49912     -1.2056   -0.033324
0.60947     -1.1971   -0.035516
0.71713     -1.1714   -0.037698
0.8194     -1.1291   -0.039874
0.91403     -1.0711   -0.042602
0  0  0
0.077731   0.0075063  -0.0026473
0.15386    0.025687  -0.0048347
0.22616    0.055557   -0.007017
0.29288    0.096391  -0.0092078
0.35239     0.14716     -0.0114
0.40323      0.2066   -0.013593
0.44415     0.27326   -0.015785
0.47414     0.34551   -0.017977
0.49247     0.42155    -0.02017
0.49867     0.49953   -0.022362
0.49261     0.57751   -0.024554
0.47443     0.65359   -0.026746
0.44458     0.72589   -0.028939
0.40378     0.79263   -0.031131
0.35306     0.85218   -0.033323
0.29364     0.90305   -0.035516
0.22701     0.94402   -0.037712
0.15476     0.97403   -0.039855
0.078439     0.99176   -0.041914
-0.0075063    0.077731  -0.0026473
-0.025687     0.15386  -0.0048347
-0.055557     0.22616   -0.007017
-0.096391     0.29288  -0.0092078
-0.14716     0.35239     -0.0114
-0.2066     0.40323   -0.013593
-0.27326     0.44415   -0.015785
-0.34551     0.47414   -0.017977
-0.42155     0.49247    -0.02017
-0.49953     0.49867   -0.022362
-0.57751     0.49261   -0.024554
-0.65359     0.47443   -0.026746
-0.72589     0.44458   -0.028939
-0.79263     0.40378   -0.031131
-0.85218     0.35306   -0.033323
-0.90305     0.29364   -0.035516
-0.94402     0.22701   -0.037712
-0.97403     0.15476   -0.039855
-0.99176    0.078439   -0.041914
-0.077731  -0.0075063  -0.0026473
-0.15386   -0.025687  -0.0048347
-0.22616   -0.055557   -0.007017
-0.29288   -0.096391  -0.0092078
-0.35239    -0.14716     -0.0114
-0.40323     -0.2066   -0.013593
-0.44415    -0.27326   -0.015785
-0.47414    -0.34551   -0.017977
-0.49247    -0.42155    -0.02017
-0.49867    -0.49953   -0.022362
-0.49261    -0.57751   -0.024554
-0.47443    -0.65359   -0.026746
-0.44458    -0.72589   -0.028939
-0.40378    -0.79263   -0.031131
-0.35306    -0.85218   -0.033323
-0.29364    -0.90305   -0.035516
-0.22701    -0.94402   -0.037712
-0.15476    -0.97403   -0.039855
-0.078439    -0.99176   -0.041914
0.0075063   -0.077731  -0.0026473
0.025687    -0.15386  -0.0048347
0.055557    -0.22616   -0.007017
0.096391    -0.29288  -0.0092078
0.14716    -0.35239     -0.0114
0.2066    -0.40323   -0.013593
0.27326    -0.44415   -0.015785
0.34551    -0.47414   -0.017977
0.42155    -0.49247    -0.02017
0.49953    -0.49867   -0.022362
0.57751    -0.49261   -0.024554
0.65359    -0.47443   -0.026746
0.72589    -0.44458   -0.028939
0.79263    -0.40378   -0.031131
0.85218    -0.35306   -0.033323
0.90305    -0.29364   -0.035516
0.94402    -0.22701   -0.037712
0.97403    -0.15476   -0.039855
0.99176   -0.078439   -0.041914
7.5642e-24  3.3061e-39   -0.039739
-1.5388e-17  7.0263e-19  -0.0029605
-8.1366e-17 -3.3372e-17  -0.0048375
-1.8755e-16 -8.4274e-17  -0.0070102
-2.974e-16 -1.2907e-16  -0.0092081
-3.526e-16 -1.7165e-16   -0.011401
-4.2393e-16 -2.5647e-16   -0.013593
-4.2876e-16 -3.0505e-16   -0.015785
-3.1149e-16 -4.1004e-16   -0.017977
-1.6711e-16  -4.422e-16    -0.02017
-3.0169e-16 -4.8388e-16   -0.022362
-4.6899e-16 -4.2963e-16   -0.024554
-2.5112e-16 -4.1069e-16   -0.026746
-6.1272e-16 -5.7041e-16   -0.028939
-7.9317e-16 -5.9255e-16   -0.031131
-8.0015e-16 -4.5373e-16   -0.033323
-6.1129e-16 -3.4699e-16   -0.035515
-3.1543e-16 -2.4111e-16    -0.03772
-4.6204e-17 -9.1645e-17   -0.039978
1.1381e-16  7.8957e-17   -0.041173
