# vtk DataFile Version 3.0
VTK Output
ASCII
DATASET UNSTRUCTURED_GRID

POINTS 1025 float
-0.5        -0.5           0
0.5        -0.5           0
0.5         0.5           0
-0.5         0.5           0
-0.5         -0.5           10
0.5         -0.5           10
0.5          0.5           10
-0.5          0.5           10
-0.25        -0.5           0
-1.3751e-12        -0.5           0
0.25        -0.5           0
0.5       -0.25           0
0.5 -1.3751e-12           0
0.5        0.25           0
0.25         0.5           0
1.3751e-12         0.5           0
-0.25         0.5           0
-0.5        0.25           0
-0.5  1.3751e-12           0
-0.5       -0.25           0
-0.25         -0.5           10
-1.37512e-12         -0.5           10
0.25         -0.5           10
0.5        -0.25           10
0.5 -1.37512e-12           10
0.5         0.25           10
0.25          0.5           10
1.37512e-12          0.5           10
-0.25          0.5           10
-0.5         0.25           10
-0.5  1.37512e-12           10
-0.5        -0.25           10
-0.5        -0.5        0.25
-0.5        -0.5         0.5
-0.5        -0.5        0.75
-0.5        -0.5           1
-0.5        -0.5        1.25
-0.5        -0.5         1.5
-0.5        -0.5        1.75
-0.5        -0.5           2
-0.5        -0.5        2.25
-0.5        -0.5         2.5
-0.5        -0.5        2.75
-0.5        -0.5           3
-0.5        -0.5        3.25
-0.5        -0.5         3.5
-0.5        -0.5        3.75
-0.5        -0.5           4
-0.5        -0.5        4.25
-0.5        -0.5         4.5
-0.5        -0.5        4.75
-0.5        -0.5           5
-0.5        -0.5        5.25
-0.5        -0.5         5.5
-0.5        -0.5        5.75
-0.5        -0.5           6
-0.5        -0.5        6.25
-0.5        -0.5         6.5
-0.5        -0.5        6.75
-0.5        -0.5           7
-0.5        -0.5        7.25
-0.5        -0.5         7.5
-0.5        -0.5        7.75
-0.5        -0.5           8
-0.5        -0.5        8.25
-0.5        -0.5         8.5
-0.5        -0.5        8.75
-0.5        -0.5           9
-0.5        -0.5        9.25
-0.5        -0.5         9.5
-0.5        -0.5        9.75
0.5        -0.5        0.25
0.5        -0.5         0.5
0.5        -0.5        0.75
0.5        -0.5           1
0.5        -0.5        1.25
0.5        -0.5         1.5
0.5        -0.5        1.75
0.5        -0.5           2
0.5        -0.5        2.25
0.5        -0.5         2.5
0.5        -0.5        2.75
0.5        -0.5           3
0.5        -0.5        3.25
0.5        -0.5         3.5
0.5        -0.5        3.75
0.5        -0.5           4
0.5        -0.5        4.25
0.5        -0.5         4.5
0.5        -0.5        4.75
0.5        -0.5           5
0.5        -0.5        5.25
0.5        -0.5         5.5
0.5        -0.5        5.75
0.5        -0.5           6
0.5        -0.5        6.25
0.5        -0.5         6.5
0.5        -0.5        6.75
0.5        -0.5           7
0.5        -0.5        7.25
0.5        -0.5         7.5
0.5        -0.5        7.75
0.5        -0.5           8
0.5        -0.5        8.25
0.5        -0.5         8.5
0.5        -0.5        8.75
0.5        -0.5           9
0.5        -0.5        9.25
0.5        -0.5         9.5
0.5        -0.5        9.75
0.5         0.5        0.25
0.5         0.5         0.5
0.5         0.5        0.75
0.5         0.5           1
0.5         0.5        1.25
0.5         0.5         1.5
0.5         0.5        1.75
0.5         0.5           2
0.5         0.5        2.25
0.5         0.5         2.5
0.5         0.5        2.75
0.5         0.5           3
0.5         0.5        3.25
0.5         0.5         3.5
0.5         0.5        3.75
0.5         0.5           4
0.5         0.5        4.25
0.5         0.5         4.5
0.5         0.5        4.75
0.5         0.5           5
0.5         0.5        5.25
0.5         0.5         5.5
0.5         0.5        5.75
0.5         0.5           6
0.5         0.5        6.25
0.5         0.5         6.5
0.5         0.5        6.75
0.5         0.5           7
0.5         0.5        7.25
0.5         0.5         7.5
0.5         0.5        7.75
0.5         0.5           8
0.5         0.5        8.25
0.5         0.5         8.5
0.5         0.5        8.75
0.5         0.5           9
0.5         0.5        9.25
0.5         0.5         9.5
0.5         0.5        9.75
-0.5         0.5        0.25
-0.5         0.5         0.5
-0.5         0.5        0.75
-0.5         0.5           1
-0.5         0.5        1.25
-0.5         0.5         1.5
-0.5         0.5        1.75
-0.5         0.5           2
-0.5         0.5        2.25
-0.5         0.5         2.5
-0.5         0.5        2.75
-0.5         0.5           3
-0.5         0.5        3.25
-0.5         0.5         3.5
-0.5         0.5        3.75
-0.5         0.5           4
-0.5         0.5        4.25
-0.5         0.5         4.5
-0.5         0.5        4.75
-0.5         0.5           5
-0.5         0.5        5.25
-0.5         0.5         5.5
-0.5         0.5        5.75
-0.5         0.5           6
-0.5         0.5        6.25
-0.5         0.5         6.5
-0.5         0.5        6.75
-0.5         0.5           7
-0.5         0.5        7.25
-0.5         0.5         7.5
-0.5         0.5        7.75
-0.5         0.5           8
-0.5         0.5        8.25
-0.5         0.5         8.5
-0.5         0.5        8.75
-0.5         0.5           9
-0.5         0.5        9.25
-0.5         0.5         9.5
-0.5         0.5        9.75
-0.25       -0.25           0
-0.25  6.8756e-13           0
-0.25        0.25           0
-6.8756e-13       -0.25           0
-3.7821e-24           0           0
6.8756e-13        0.25           0
0.25       -0.25           0
0.25 -6.8756e-13           0
0.25        0.25           0
-0.25        -0.5        0.25
-0.25        -0.5         0.5
-0.25        -0.5        0.75
-0.25        -0.5           1
-0.25        -0.5        1.25
-0.25        -0.5         1.5
-0.25        -0.5        1.75
-0.25        -0.5           2
-0.25        -0.5        2.25
-0.25        -0.5         2.5
-0.25        -0.5        2.75
-0.25        -0.5           3
-0.25        -0.5        3.25
-0.25        -0.5         3.5
-0.25        -0.5        3.75
-0.25        -0.5           4
-0.25        -0.5        4.25
-0.25        -0.5         4.5
-0.25        -0.5        4.75
-0.25        -0.5           5
-0.25        -0.5        5.25
-0.25        -0.5         5.5
-0.25        -0.5        5.75
-0.25        -0.5           6
-0.25        -0.5        6.25
-0.25        -0.5         6.5
-0.25        -0.5        6.75
-0.25        -0.5           7
-0.25        -0.5        7.25
-0.25        -0.5         7.5
-0.25        -0.5        7.75
-0.25        -0.5           8
-0.25        -0.5        8.25
-0.25        -0.5         8.5
-0.25        -0.5        8.75
-0.25        -0.5           9
-0.25        -0.5        9.25
-0.25        -0.5         9.5
-0.25        -0.5        9.75
-1.3751e-12        -0.5        0.25
-1.3751e-12        -0.5         0.5
-1.3751e-12        -0.5        0.75
-1.3751e-12        -0.5           1
-1.3751e-12        -0.5        1.25
-1.3751e-12        -0.5         1.5
-1.3751e-12        -0.5        1.75
-1.3751e-12        -0.5           2
-1.3751e-12        -0.5        2.25
-1.3751e-12        -0.5         2.5
-1.3751e-12        -0.5        2.75
-1.3751e-12        -0.5           3
-1.3751e-12        -0.5        3.25
-1.3751e-12        -0.5         3.5
-1.3751e-12        -0.5        3.75
-1.3751e-12        -0.5           4
-1.3751e-12        -0.5        4.25
-1.3751e-12        -0.5         4.5
-1.3751e-12        -0.5        4.75
-1.3751e-12        -0.5           5
-1.3751e-12        -0.5        5.25
-1.3751e-12        -0.5         5.5
-1.3751e-12        -0.5        5.75
-1.3751e-12        -0.5           6
-1.3751e-12        -0.5        6.25
-1.3751e-12        -0.5         6.5
-1.3751e-12        -0.5        6.75
-1.3751e-12        -0.5           7
-1.3751e-12        -0.5        7.25
-1.3751e-12        -0.5         7.5
-1.3751e-12        -0.5        7.75
-1.3751e-12        -0.5           8
-1.3751e-12        -0.5        8.25
-1.3751e-12        -0.5         8.5
-1.3751e-12        -0.5        8.75
-1.3751e-12        -0.5           9
-1.3751e-12        -0.5        9.25
-1.3751e-12        -0.5         9.5
-1.3751e-12        -0.5        9.75
0.25        -0.5        0.25
0.25        -0.5         0.5
0.25        -0.5        0.75
0.25        -0.5           1
0.25        -0.5        1.25
0.25        -0.5         1.5
0.25        -0.5        1.75
0.25        -0.5           2
0.25        -0.5        2.25
0.25        -0.5         2.5
0.25        -0.5        2.75
0.25        -0.5           3
0.25        -0.5        3.25
0.25        -0.5         3.5
0.25        -0.5        3.75
0.25        -0.5           4
0.25        -0.5        4.25
0.25        -0.5         4.5
0.25        -0.5        4.75
0.25        -0.5           5
0.25        -0.5        5.25
0.25        -0.5         5.5
0.25        -0.5        5.75
0.25        -0.5           6
0.25        -0.5        6.25
0.25        -0.5         6.5
0.25        -0.5        6.75
0.25        -0.5           7
0.25        -0.5        7.25
0.25        -0.5         7.5
0.25        -0.5        7.75
0.25        -0.5           8
0.25        -0.5        8.25
0.25        -0.5         8.5
0.25        -0.5        8.75
0.25        -0.5           9
0.25        -0.5        9.25
0.25        -0.5         9.5
0.25        -0.5        9.75
0.5       -0.25        0.25
0.5       -0.25         0.5
0.5       -0.25        0.75
0.5       -0.25           1
0.5       -0.25        1.25
0.5       -0.25         1.5
0.5       -0.25        1.75
0.5       -0.25           2
0.5       -0.25        2.25
0.5       -0.25         2.5
0.5       -0.25        2.75
0.5       -0.25           3
0.5       -0.25        3.25
0.5       -0.25         3.5
0.5       -0.25        3.75
0.5       -0.25           4
0.5       -0.25        4.25
[...]
POINT_DATA 1025
VECTORS displacement double
0  0  0
0  0  0
0  0  0
0  0  0
1.1533      0.2294    -0.35834
-0.2294      1.1533    -0.35834
-1.1533     -0.2294    -0.35834
0.2294     -1.1533    -0.35834
0  0  0
0  0  0
0  0  0
0  0  0
0  0  0
0  0  0
0  0  0
0  0  0
0  0  0
0  0  0
0  0  0
0  0  0
0.80761     0.46037    -0.37384
0.46194     0.69134    -0.33472
0.11627     0.92231    -0.30638
-0.46037     0.80761    -0.37384
-0.69134     0.46194    -0.33472
-0.92231     0.11627    -0.30638
-0.80761    -0.46037    -0.37384
-0.46194    -0.69134    -0.33472
-0.11627    -0.92231    -0.30638
0.46037    -0.80761    -0.37384
0.69134    -0.46194    -0.33472
0.92231    -0.11627    -0.30638
0.10321   -0.066103  -0.0027029
0.2298    -0.13335   -0.013816
0.36684    -0.17441   -0.023597
0.50856    -0.18733   -0.032337
0.64942    -0.17111   -0.040463
0.78369     -0.1264   -0.048338
0.90587   -0.055128   -0.056173
1.0109     0.03965   -0.064024
1.0942     0.15391    -0.07189
1.1525     0.28282   -0.079762
1.1831     0.42092   -0.087636
1.1848     0.56237   -0.095509
1.1576     0.70118    -0.10338
1.1025     0.83147    -0.11125
1.0219     0.94774    -0.11913
0.91928      1.0451      -0.127
0.79889      1.1193    -0.13487
0.66584      1.1674    -0.14275
0.52578      1.1872    -0.15062
0.38462      1.1779    -0.15849
0.24835        1.14    -0.16637
0.12273      1.0749    -0.17424
0.013071     0.98559    -0.18211
-0.075984     0.87568    -0.18998
-0.14067     0.74988    -0.19786
-0.17824      0.6135    -0.20573
-0.18712     0.47232     -0.2136
-0.16691     0.33232    -0.22148
-0.11849      0.1994    -0.22935
-0.043901    0.079211    -0.23722
0.053704   -0.023179     -0.2451
0.17018    -0.10344    -0.25298
0.30059    -0.15817    -0.26083
0.43937    -0.18505    -0.26858
0.58068    -0.18286    -0.27617
0.71872    -0.15131    -0.28375
0.84817   -0.090717    -0.29244
0.96462  -0.0024634     -0.3055
1.0653     0.10879    -0.32685
0.066103     0.10321  -0.0027029
0.13335      0.2298   -0.013816
0.17441     0.36684   -0.023597
0.18733     0.50856   -0.032337
0.17111     0.64942   -0.040463
0.1264     0.78369   -0.048338
0.055128     0.90587   -0.056173
-0.03965      1.0109   -0.064024
-0.15391      1.0942    -0.07189
-0.28282      1.1525   -0.079762
-0.42092      1.1831   -0.087636
-0.56237      1.1848   -0.095509
-0.70118      1.1576    -0.10338
-0.83147      1.1025    -0.11125
-0.94774      1.0219    -0.11913
-1.0451     0.91928      -0.127
-1.1193     0.79889    -0.13487
-1.1674     0.66584    -0.14275
-1.1872     0.52578    -0.15062
-1.1779     0.38462    -0.15849
-1.14     0.24835    -0.16637
-1.0749     0.12273    -0.17424
-0.98559    0.013071    -0.18211
-0.87568   -0.075984    -0.18998
-0.74988    -0.14067    -0.19786
-0.6135    -0.17824    -0.20573
-0.47232    -0.18712     -0.2136
-0.33232    -0.16691    -0.22148
-0.1994    -0.11849    -0.22935
-0.079211   -0.043901    -0.23722
0.023179    0.053704     -0.2451
0.10344     0.17018    -0.25298
0.15817     0.30059    -0.26083
0.18505     0.43937    -0.26858
0.18286     0.58068    -0.27617
0.15131     0.71872    -0.28375
0.090717     0.84817    -0.29244
0.0024634     0.96462     -0.3055
-0.10879      1.0653    -0.32685
-0.10321    0.066103  -0.0027029
-0.2298     0.13335   -0.013816
-0.36684     0.17441   -0.023597
-0.50856     0.18733   -0.032337
-0.64942     0.17111   -0.040463
-0.78369      0.1264   -0.048338
-0.90587    0.055128   -0.056173
-1.0109    -0.03965   -0.064024
-1.0942    -0.15391    -0.07189
-1.1525    -0.28282   -0.079762
-1.1831    -0.42092   -0.087636
-1.1848    -0.56237   -0.095509
-1.1576    -0.70118    -0.10338
-1.1025    -0.83147    -0.11125
-1.0219    -0.94774    -0.11913
-0.91928     -1.0451      -0.127
-0.79889     -1.1193    -0.13487
-0.66584     -1.1674    -0.14275
-0.52578     -1.1872    -0.15062
-0.38462     -1.1779    -0.15849
-0.24835       -1.14    -0.16637
-0.12273     -1.0749    -0.17424
-0.013071    -0.98559    -0.18211
0.075984    -0.87568    -0.18998
0.14067    -0.74988    -0.19786
0.17824     -0.6135    -0.20573
0.18712    -0.47232     -0.2136
0.16691    -0.33232    -0.22148
0.11849     -0.1994    -0.22935
0.043901   -0.079211    -0.23722
-0.053704    0.023179     -0.2451
-0.17018     0.10344    -0.25298
-0.30059     0.15817    -0.26083
-0.43937     0.18505    -0.26858
-0.58068     0.18286    -0.27617
-0.71872     0.15131    -0.28375
-0.84817    0.090717    -0.29244
-0.96462   0.0024634     -0.3055
-1.0653    -0.10879    -0.32685
-0.066103    -0.10321  -0.0027029
-0.13335     -0.2298   -0.013816
-0.17441    -0.36684   -0.023597
-0.18733    -0.50856   -0.032337
-0.17111    -0.64942   -0.040463
-0.1264    -0.78369   -0.048338
-0.055128    -0.90587   -0.056173
0.03965     -1.0109   -0.064024
0.15391     -1.0942    -0.07189
0.28282     -1.1525   -0.079762
0.42092     -1.1831   -0.087636
0.56237     -1.1848   -0.095509
0.70118     -1.1576    -0.10338
0.83147     -1.1025    -0.11125
0.94774     -1.0219    -0.11913
1.0451    -0.91928      -0.127
1.1193    -0.79889    -0.13487
1.1674    -0.66584    -0.14275
1.1872    -0.52578    -0.15062
1.1779    -0.38462    -0.15849
1.14    -0.24835    -0.16637
1.0749    -0.12273    -0.17424
0.98559   -0.013071    -0.18211
0.87568    0.075984    -0.18998
0.74988     0.14067    -0.19786
0.6135     0.17824    -0.20573
0.47232     0.18712     -0.2136
0.33232     0.16691    -0.22148
0.1994     0.11849    -0.22935
0.079211    0.043901    -0.23722
-0.023179   -0.053704     -0.2451
-0.10344    -0.17018    -0.25298
-0.15817    -0.30059    -0.26083
-0.18505    -0.43937    -0.26858
-0.18286    -0.58068    -0.27617
-0.15131    -0.71872    -0.28375
-0.090717    -0.84817    -0.29244
-0.0024634    -0.96462     -0.3055
0.10879     -1.0653    -0.32685
0  0  0
0  0  0
0  0  0
0  0  0
0  0  0
0  0  0
0  0  0
0  0  0
0  0  0
0.096301   -0.026051   -0.031339
0.20431   -0.041992   -0.045745
0.31701   -0.039277   -0.055265
0.42665   -0.013958   -0.063513
0.52838    0.033043   -0.071377
0.61812    0.099846   -0.079199
0.69222     0.18361   -0.087044
0.74759     0.28077   -0.094908
0.78192     0.38722    -0.10278
0.79374     0.49844    -0.11065
0.78255     0.60973    -0.11853
0.74883     0.71638     -0.1264
0.69401     0.81387    -0.13427
0.62039     0.89808    -0.14215
0.5311     0.96544    -0.15002
0.42992      1.0131    -0.15789
0.32112      1.0391    -0.16576
0.20932      1.0422    -0.17364
0.099234      1.0224    -0.18151
-0.0044699     0.98052    -0.18938
-0.097407     0.91829    -0.19726
-0.17564     0.83835    -0.20513
-0.23587      0.7441      -0.213
-0.27554     0.63952    -0.22087
-0.29296     0.52904    -0.22875
-0.28742     0.41733    -0.23662
-0.25913     0.30911    -0.24449
-0.2093     0.20898    -0.25237
-0.14004     0.12115    -0.26024
-0.054265    0.049362    -0.26811
0.044379  -0.0033622    -0.27599
0.15172   -0.034796    -0.28386
0.26319   -0.043629    -0.29171
0.37407   -0.029501    -0.29952
0.47968   0.0070756    -0.30728
0.57552    0.065016    -0.31514
0.65726     0.14302    -0.32381
0.7211     0.23923    -0.33505
0.76533     0.34746    -0.35011
0.093455     0.01586  -0.0057396
0.18345    0.046436   -0.014835
0.27219    0.094174   -0.024352
0.35006     0.15863   -0.032646
0.41283     0.23755   -0.040499
0.45789     0.32758   -0.048306
0.48349     0.42491   -0.056149
0.48862     0.52541   -0.064015
0.47308     0.62485   -0.071888
0.43753       0.719   -0.079763
0.38346     0.80389   -0.087636
0.31317     0.87592   -0.095509
0.22962     0.93205    -0.10338
0.13636     0.96989    -0.11125
0.03733     0.98785    -0.11913
-0.06328     0.98517      -0.127
-0.16121     0.96195    -0.13487
-0.25232     0.91919    -0.14275
-0.33276      0.8587    -0.15062
-0.39911     0.78302    -0.15849
-0.44858     0.69537    -0.16637
-0.47906     0.59945    -0.17424
-0.48927     0.49932    -0.18211
-0.47879     0.39923    -0.18998
-0.44804     0.30339    -0.19786
-0.39833     0.21588    -0.20573
-0.33177     0.14039     -0.2136
-0.25117    0.080112    -0.22148
-0.15994    0.037604    -0.22935
-0.061938    0.014662    -0.23722
0.038681    0.012257     -0.2451
0.13766    0.030482    -0.25298
0.23081    0.068549    -0.26086
0.31418     0.12482    -0.26872
0.38422     0.19695    -0.27646
0.43781     0.28214    -0.28391
0.47213     0.37752    -0.29106
0.48488     0.48041    -0.29924
0.47662     0.58689    -0.31252
0.081284    0.063752    0.016828
0.15895     0.14127    0.015208
0.22317     0.23338   0.0070141
0.26811     0.33633   -0.001412
0.29093     0.44606  -0.0094997
0.29063     0.55796   -0.017407
0.26736     0.66736   -0.025269
0.22217     0.76966   -0.033131
0.157     0.86056      -0.041
0.074618     0.93621   -0.048872
-0.021504      0.9934   -0.056745
-0.1273      1.0297   -0.064618
-0.23828      1.0436   -0.072491
-0.34976      1.0345   -0.080364
-0.45701      1.0028   -0.088237
-0.55551      0.9498    -0.09611
-0.64108     0.87777    -0.10398
-0.7101     0.78975    -0.11186
-0.75966     0.68948    -0.11973
-0.78764     0.58119     -0.1276
-0.79288     0.46946    -0.13547
-0.77515     0.35903    -0.14335
-0.73519     0.25456    -0.15122
-0.67471     0.16047    -0.15909
-0.59625    0.080757    -0.16697
-0.50314     0.01878    -0.17484
-0.39932   -0.022835    -0.18271
-0.28918   -0.042327    -0.19058
-0.17739    -0.03887    -0.19846
-0.068663   -0.012611    -0.20633
0.032391    0.035338    -0.21421
0.1215     0.10294    -0.22209
0.19489     0.18732    -0.22996
0.24944     0.28489     -0.2378
0.28279     0.39151    -0.24553
0.29328     0.50279    -0.25305
0.27987     0.61454     -0.2606
0.2423     0.72328     -0.2695
0.18238     0.82764    -0.28452
0.026051    0.096301   -0.031339
0.041992     0.20431   -0.045745
0.039277     0.31701   -0.055265
0.013958     0.42665   -0.063513
-0.033043     0.52838   -0.071377
-0.099846     0.61812   -0.079199
-0.18361     0.69222   -0.087044
-0.28077     0.74759   -0.094908
-0.38722     0.78192    -0.10278
-0.49844     0.79374    -0.11065
-0.60973     0.78255    -0.11853
-0.71638     0.74883     -0.1264
-0.81387     0.69401    -0.13427
-0.89808     0.62039    -0.14215
-0.96544      0.5311    -0.15002
-1.0131     0.42992    -0.15789
-1.0391     0.32112    -0.16576
-1.0422     0.20932    -0.17364
-1.0224    0.099234    -0.18151
-0.98052  -0.0044699    -0.18938
-0.91829   -0.097407    -0.19726
-0.83835    -0.17564    -0.20513
-0.7441    -0.23587      -0.213
-0.63952    -0.27554    -0.22087
-0.52904    -0.29296    -0.22875
-0.41733    -0.28742    -0.23662
-0.30911    -0.25913    -0.24449
-0.20898     -0.2093    -0.25237
-0.12115    -0.14004    -0.26024
-0.049362   -0.054265    -0.26811
0.0033622    0.044379    -0.27599
0.034796     0.15172    -0.28386
0.043629     0.26319    -0.29171
0.029501     0.37407    -0.29952
-0.0070756     0.47968    -0.30728
-0.065016     0.57552    -0.31514
-0.14302     0.65726    -0.32381
-0.23923      0.7211    -0.33505
-0.34746     0.76533    -0.35011
-0.01586    0.093455  -0.0057396
-0.046436     0.18345   -0.014835
-0.094174     0.27219   -0.024352
-0.15863     0.35006   -0.032646
-0.23755     0.41283   -0.040499
-0.32758     0.45789   -0.048306
-0.42491     0.48349   -0.056149
-0.52541     0.48862   -0.064015
-0.62485     0.47308   -0.071888
-0.719     0.43753   -0.079763
-0.80389     0.38346   -0.087636
-0.87592     0.31317   -0.095509
-0.93205     0.22962    -0.10338
-0.96989     0.13636    -0.11125
-0.98785     0.03733    -0.11913
-0.98517    -0.06328      -0.127
-0.96195    -0.16121    -0.13487
-0.91919    -0.25232    -0.14275
-0.8587    -0.33276    -0.15062
-0.78302    -0.39911    -0.15849
-0.69537    -0.44858    -0.16637
-0.59945    -0.47906    -0.17424
-0.49932    -0.48927    -0.18211
-0.39923    -0.47879    -0.18998
-0.30339    -0.44804    -0.19786
-0.21588    -0.39833    -0.20573
-0.14039    -0.33177     -0.2136
-0.080112    -0.25117    -0.22148
-0.037604    -0.15994    -0.22935
-0.014662   -0.061938    -0.23722
-0.012257    0.038681     -0.2451
-0.030482     0.13766    -0.25298
-0.068549     0.23081    -0.26086
-0.12482     0.31418    -0.26872
-0.19695     0.38422    -0.27646
-0.28214     0.43781    -0.28391
-0.37752     0.47213    -0.29106
-0.48041     0.48488    -0.29924
-0.58689     0.47662    -0.31252
-0.063752    0.081284    0.016828
-0.14127     0.15895    0.015208
-0.23338     0.22317   0.0070141
-0.33633     0.26811   -0.001412
-0.44606     0.29093  -0.0094997
-0.55796     0.29063   -0.017407
-0.66736     0.26736   -0.025269
-0.76966     0.22217   -0.033131
-0.86056       0.157      -0.041
-0.93621    0.074618   -0.048872
-0.9934   -0.021504   -0.056745
-1.0297     -0.1273   -0.064618
-1.0436    -0.23828   -0.072491
-1.0345    -0.34976   -0.080364
-1.0028    -0.45701   -0.088237
-0.9498    -0.55551    -0.09611
-0.87777    -0.64108    -0.10398
-0.78975     -0.7101    -0.11186
-0.68948    -0.75966    -0.11973
-0.58119    -0.78764     -0.1276
-0.46946    -0.79288    -0.13547
-0.35903    -0.77515    -0.14335
-0.25456    -0.73519    -0.15122
-0.16047    -0.67471    -0.15909
-0.080757    -0.59625    -0.16697
-0.01878    -0.50314    -0.17484
0.022835    -0.39932    -0.18271
0.042327    -0.28918    -0.19058
0.03887    -0.17739    -0.19846
0.012611   -0.068663    -0.20633
-0.035338    0.032391    -0.21421
-0.10294      0.1215    -0.22209
-0.18732     0.19489    -0.22996
-0.28489     0.24944     -0.2378
-0.39151     0.28279    -0.24553
-0.50279     0.29328    -0.25305
-0.61454     0.27987     -0.2606
-0.72328      0.2423     -0.2695
-0.82764     0.18238    -0.28452
-0.096301    0.026051   -0.031339
-0.20431    0.041992   -0.045745
-0.31701    0.039277   -0.055265
-0.42665    0.013958   -0.063513
-0.52838   -0.033043   -0.071377
-0.61812   -0.099846   -0.079199
-0.69222    -0.18361   -0.087044
-0.74759    -0.28077   -0.094908
-0.78192    -0.38722    -0.10278
-0.79374    -0.49844    -0.11065
-0.78255    -0.60973    -0.11853
-0.74883    -0.71638     -0.1264
-0.69401    -0.81387    -0.13427
-0.62039    -0.89808    -0.14215
-0.5311    -0.96544    -0.15002
-0.42992     -1.0131    -0.15789
-0.32112     -1.0391    -0.16576
-0.20932     -1.0422    -0.17364
-0.099234     -1.0224    -0.18151
0.0044699    -0.98052    -0.18938
0.097407    -0.91829    -0.19726
0.17564    -0.83835    -0.20513
0.23587     -0.7441      -0.213
0.27554    -0.63952    -0.22087
0.29296    -0.52904    -0.22875
0.28742    -0.41733    -0.23662
0.25913    -0.30911    -0.24449
0.2093    -0.20898    -0.25237
0.14004    -0.12115    -0.26024
0.054265   -0.049362    -0.26811
-0.044379   0.0033622    -0.27599
-0.15172    0.034796    -0.28386
-0.26319    0.043629    -0.29171
-0.37407    0.029501    -0.29952
-0.47968  -0.0070756    -0.30728
-0.57552   -0.065016    -0.31514
-0.65726    -0.14302    -0.32381
-0.7211    -0.23923    -0.33505
-0.76533    -0.34746    -0.35011
-0.093455    -0.01586  -0.0057396
-0.18345   -0.046436   -0.014835
-0.27219   -0.094174   -0.024352
-0.35006    -0.15863   -0.032646
-0.41283    -0.23755   -0.040499
-0.45789    -0.32758   -0.048306
-0.48349    -0.42491   -0.056149
-0.48862    -0.52541   -0.064015
-0.47308    -0.62485   -0.071888
-0.43753      -0.719   -0.079763
-0.38346    -0.80389   -0.087636
-0.31317    -0.87592   -0.095509
-0.22962    -0.93205    -0.10338
-0.13636    -0.96989    -0.11125
-0.03733    -0.98785    -0.11913
0.06328    -0.98517      -0.127
0.16121    -0.96195    -0.13487
0.25232    -0.91919    -0.14275
0.33276     -0.8587    -0.15062
0.39911    -0.78302    -0.15849
0.44858    -0.69537    -0.16637
0.47906    -0.59945    -0.17424
0.48927    -0.49932    -0.18211
0.47879    -0.39923    -0.18998
0.44804    -0.30339    -0.19786
0.39833    -0.21588    -0.20573
0.33177    -0.14039     -0.2136
0.25117   -0.080112    -0.22148
0.15994   -0.037604    -0.22935
0.061938   -0.014662    -0.23722
-0.038681   -0.012257     -0.2451
-0.13766   -0.030482    -0.25298
-0.23081   -0.068549    -0.26086
-0.31418    -0.12482    -0.26872
-0.38422    -0.19695    -0.27646
-0.43781    -0.28214    -0.28391
-0.47213    -0.37752    -0.29106
-0.48488    -0.48041    -0.29924
-0.47662    -0.58689    -0.31252
-0.081284   -0.063752    0.016828
-0.15895    -0.14127    0.015208
-0.22317    -0.23338   0.0070141
-0.26811    -0.33633   -0.001412
-0.29093    -0.44606  -0.0094997
-0.29063    -0.55796   -0.017407
-0.26736    -0.66736   -0.025269
-0.22217    -0.76966   -0.033131
-0.157    -0.86056      -0.041
-0.074618    -0.93621   -0.048872
0.021504     -0.9934   -0.056745
0.1273     -1.0297   -0.064618
0.23828     -1.0436   -0.072491
0.34976     -1.0345   -0.080364
0.45701     -1.0028   -0.088237
0.55551     -0.9498    -0.09611
0.64108    -0.87777    -0.10398
0.7101    -0.78975    -0.11186
0.75966    -0.68948    -0.11973
0.78764    -0.58119     -0.1276
0.79288    -0.46946    -0.13547
0.77515    -0.35903    -0.14335
0.73519    -0.25456    -0.15122
0.67471    -0.16047    -0.15909
0.59625   -0.080757    -0.16697
0.50314    -0.01878    -0.17484
0.39932    0.022835    -0.18271
0.28918    0.042327    -0.19058
0.17739     0.03887    -0.19846
0.068663    0.012611    -0.20633
-0.032391   -0.035338    -0.21421
-0.1215    -0.10294    -0.22209
-0.19489    -0.18732    -0.22996
-0.24944    -0.28489     -0.2378
-0.28279    -0.39151    -0.24553
-0.29328    -0.50279    -0.25305
-0.27987    -0.61454     -0.2606
-0.2423    -0.72328     -0.2695
-0.18238    -0.82764    -0.28452
-0.026051   -0.096301   -0.031339
-0.041992    -0.20431   -0.045745
-0.039277    -0.31701   -0.055265
-0.013958    -0.42665   -0.063513
0.033043    -0.52838   -0.071377
0.099846    -0.61812   -0.079199
0.18361    -0.69222   -0.087044
0.28077    -0.74759   -0.094908
0.38722    -0.78192    -0.10278
0.49844    -0.79374    -0.11065
0.60973    -0.78255    -0.11853
0.71638    -0.74883     -0.1264
0.81387    -0.69401    -0.13427
0.89808    -0.62039    -0.14215
0.96544     -0.5311    -0.15002
1.0131    -0.42992    -0.15789
1.0391    -0.32112    -0.16576
1.0422    -0.20932    -0.17364
1.0224   -0.099234    -0.18151
0.98052   0.0044699    -0.18938
0.91829    0.097407    -0.19726
0.83835     0.17564    -0.20513
0.7441     0.23587      -0.213
0.63952     0.27554    -0.22087
0.52904     0.29296    -0.22875
0.41733     0.28742    -0.23662
0.30911     0.25913    -0.24449
0.20898      0.2093    -0.25237
0.12115     0.14004    -0.26024
0.049362    0.054265    -0.26811
-0.0033622   -0.044379    -0.27599
-0.034796    -0.15172    -0.28386
-0.043629    -0.26319    -0.29171
-0.029501    -0.37407    -0.29952
0.0070756    -0.47968    -0.30728
0.065016    -0.57552    -0.31514
0.14302    -0.65726    -0.32381
0.23923     -0.7211    -0.33505
0.34746    -0.76533    -0.35011
0.01586   -0.093455  -0.0057396
0.046436    -0.18345   -0.014835
0.094174    -0.27219   -0.024352
0.15863    -0.35006   -0.032646
0.23755    -0.41283   -0.040499
0.32758    -0.45789   -0.048306
0.42491    -0.48349   -0.056149
0.52541    -0.48862   -0.064015
0.62485    -0.47308   -0.071888
0.719    -0.43753   -0.079763
0.80389    -0.38346   -0.087636
0.87592    -0.31317   -0.095509
0.93205    -0.22962    -0.10338
0.96989    -0.13636    -0.11125
0.98785    -0.03733    -0.11913
0.98517     0.06328      -0.127
0.96195     0.16121    -0.13487
0.91919     0.25232    -0.14275
0.8587     0.33276    -0.15062
0.78302     0.39911    -0.15849
0.69537     0.44858    -0.16637
0.59945     0.47906    -0.17424
0.49932     0.48927    -0.18211
0.39923     0.47879    -0.18998
0.30339     0.44804    -0.19786
0.21588     0.39833    -0.20573
0.14039     0.33177     -0.2136
0.080112     0.25117    -0.22148
0.037604     0.15994    -0.22935
0.014662    0.061938    -0.23722
0.012257   -0.038681     -0.2451
0.030482    -0.13766    -0.25298
0.068549    -0.23081    -0.26086
0.12482    -0.31418    -0.26872
0.19695    -0.38422    -0.27646
0.28214    -0.43781    -0.28391
0.37752    -0.47213    -0.29106
0.48041    -0.48488    -0.29924
0.58689    -0.47662    -0.31252
0.063752   -0.081284    0.016828
0.14127    -0.15895    0.015208
0.23338    -0.22317   0.0070141
0.33633    -0.26811   -0.001412
0.44606    -0.29093  -0.0094997