# vtk DataFile Version 3.0
VTK Output
ASCII
DATASET UNSTRUCTURED_GRID

POINTS 1025 float
-0.5        -0.5           0
0.5        -0.5           0
0.5         0.5           0
-0.5         0.5           0
-0.5         -0.5           10
0.5         -0.5           10
0.5          0.5           10
-0.5          0.5           10
-0.25        -0.5           0
-1.3751e-12        -0.5           0
0.25        -0.5           0
0.5       -0.25           0
0.5 -1.3751e-12           0
0.5        0.25           0
0.25         0.5           0
1.3751e-12         0.5           0
-0.25         0.5           0
-0.5        0.25           0
-0.5  1.3751e-12           0
-0.5       -0.25           0
-0.25         -0.5           10
-1.37512e-12         -0.5           10
0.25         -0.5           10
0.5        -0.25           10
0.5 -1.37512e-12           10
0.5         0.25           10
0.25          0.5           10
1.37512e-12          0.5           10
-0.25          0.5           10
-0.5         0.25           10
-0.5  1.37512e-12           10
-0.5        -0.25           10
-0.5        -0.5        0.25
-0.5        -0.5         0.5
-0.5        -0.5        0.75
-0.5        -0.5           1
-0.5        -0.5        1.25
-0.5        -0.5         1.5
-0.5        -0.5        1.75
-0.5        -0.5           2
-0.5        -0.5        2.25
-0.5        -0.5         2.5
-0.5        -0.5        2.75
-0.5        -0.5           3
-0.5        -0.5        3.25
-0.5        -0.5         3.5
-0.5        -0.5        3.75
-0.5        -0.5           4
-0.5        -0.5        4.25
-0.5        -0.5         4.5
-0.5        -0.5        4.75
-0.5        -0.5           5
-0.5        -0.5        5.25
-0.5        -0.5         5.5
-0.5        -0.5        5.75
-0.5        -0.5           6
-0.5        -0.5        6.25
-0.5        -0.5         6.5
-0.5        -0.5        6.75
-0.5        -0.5           7
-0.5        -0.5        7.25
-0.5        -0.5         7.5
-0.5        -0.5        7.75
-0.5        -0.5           8
-0.5        -0.5        8.25
-0.5        -0.5         8.5
-0.5        -0.5        8.75
-0.5        -0.5           9
-0.5        -0.5        9.25
-0.5        -0.5         9.5
-0.5        -0.5        9.75
0.5        -0.5        0.25
0.5        -0.5         0.5
0.5        -0.5        0.75
0.5        -0.5           1
0.5        -0.5        1.25
0.5        -0.5         1.5
0.5        -0.5        1.75
0.5        -0.5           2
0.5        -0.5        2.25
0.5        -0.5         2.5
0.5        -0.5        2.75
0.5        -0.5           3
0.5        -0.5        3.25
0.5        -0.5         3.5
0.5        -0.5        3.75
0.5        -0.5           4
0.5        -0.5        4.25
0.5        -0.5         4.5
0.5        -0.5        4.75
0.5        -0.5           5
0.5        -0.5        5.25
0.5        -0.5         5.5
0.5        -0.5        5.75
0.5        -0.5           6
0.5        -0.5        6.25
0.5        -0.5         6.5
0.5        -0.5        6.75
0.5        -0.5           7
0.5        -0.5        7.25
0.5        -0.5         7.5
0.5        -0.5        7.75
0.5        -0.5           8
0.5        -0.5        8.25
0.5        -0.5         8.5
0.5        -0.5        8.75
0.5        -0.5           9
0.5        -0.5        9.25
0.5        -0.5         9.5
0.5        -0.5        9.75
0.5         0.5        0.25
0.5         0.5         0.5
0.5         0.5        0.75
0.5         0.5           1
0.5         0.5        1.25
0.5         0.5         1.5
0.5         0.5        1.75
0.5         0.5           2
0.5         0.5        2.25
0.5         0.5         2.5
0.5         0.5        2.75
0.5         0.5           3
0.5         0.5        3.25
0.5         0.5         3.5
0.5         0.5        3.75
0.5         0.5           4
0.5         0.5        4.25
0.5         0.5         4.5
0.5         0.5        4.75
0.5         0.5           5
0.5         0.5        5.25
0.5         0.5         5.5
0.5         0.5        5.75
0.5         0.5           6
0.5         0.5        6.25
0.5         0.5         6.5
0.5         0.5        6.75
0.5         0.5           7
0.5         0.5        7.25
0.5         0.5         7.5
0.5         0.5        7.75
0.5         0.5           8
0.5         0.5        8.25
0.5         0.5         8.5
0.5         0.5        8.75
0.5         0.5           9
0.5         0.5        9.25
0.5         0.5         9.5
0.5         0.5        9.75
-0.5         0.5        0.25
-0.5         0.5         0.5
-0.5         0.5        0.75
-0.5         0.5           1
-0.5         0.5        1.25
-0.5         0.5         1.5
-0.5         0.5        1.75
-0.5         0.5           2
-0.5         0.5        2.25
-0.5         0.5         2.5
-0.5         0.5        2.75
-0.5         0.5           3
-0.5         0.5        3.25
-0.5         0.5         3.5
-0.5         0.5        3.75
-0.5         0.5           4
-0.5         0.5        4.25
-0.5         0.5         4.5
-0.5         0.5        4.75
-0.5         0.5           5
-0.5         0.5        5.25
-0.5         0.5         5.5
-0.5         0.5        5.75
-0.5         0.5           6
-0.5         0.5        6.25
-0.5         0.5         6.5
-0.5         0.5        6.75
-0.5         0.5           7
-0.5         0.5        7.25
-0.5         0.5         7.5
-0.5         0.5        7.75
-0.5         0.5           8
-0.5         0.5        8.25
-0.5         0.5         8.5
-0.5         0.5        8.75
-0.5         0.5           9
-0.5         0.5        9.25
-0.5         0.5         9.5
-0.5         0.5        9.75
-0.25       -0.25           0
-0.25  6.8756e-13           0
-0.25        0.25           0
-6.8756e-13       -0.25           0
-3.7821e-24           0           0
6.8756e-13        0.25           0
0.25       -0.25           0
0.25 -6.8756e-13           0
0.25        0.25           0
-0.25        -0.5        0.25
-0.25        -0.5         0.5
-0.25        -0.5        0.75
-0.25        -0.5           1
-0.25        -0.5        1.25
-0.25        -0.5         1.5
-0.25        -0.5        1.75
-0.25        -0.5           2
-0.25        -0.5        2.25
-0.25        -0.5         2.5
-0.25        -0.5        2.75
-0.25        -0.5           3
-0.25        -0.5        3.25
-0.25        -0.5         3.5
-0.25        -0.5        3.75
-0.25        -0.5           4
-0.25        -0.5        4.25
-0.25        -0.5         4.5
-0.25        -0.5        4.75
-0.25        -0.5           5
-0.25        -0.5        5.25
-0.25        -0.5         5.5
-0.25        -0.5        5.75
-0.25        -0.5           6
-0.25        -0.5        6.25
-0.25        -0.5         6.5
-0.25        -0.5        6.75
-0.25        -0.5           7
-0.25        -0.5        7.25
-0.25        -0.5         7.5
-0.25        -0.5        7.75
-0.25        -0.5           8
-0.25        -0.5        8.25
-0.25        -0.5         8.5
-0.25        -0.5        8.75
-0.25        -0.5           9
-0.25        -0.5        9.25
-0.25        -0.5         9.5
-0.25        -0.5        9.75
-1.3751e-12        -0.5        0.25
-1.3751e-12        -0.5         0.5
-1.3751e-12        -0.5        0.75
-1.3751e-12        -0.5           1
-1.3751e-12        -0.5        1.25
-1.3751e-12        -0.5         1.5
-1.3751e-12        -0.5        1.75
-1.3751e-12        -0.5           2
-1.3751e-12        -0.5        2.25
-1.3751e-12        -0.5         2.5
-1.3751e-12        -0.5        2.75
-1.3751e-12        -0.5           3
-1.3751e-12        -0.5        3.25
-1.3751e-12        -0.5         3.5
-1.3751e-12        -0.5        3.75
-1.3751e-12        -0.5           4
-1.3751e-12        -0.5        4.25
-1.3751e-12        -0.5         4.5
-1.3751e-12        -0.5        4.75
-1.3751e-12        -0.5           5
-1.3751e-12        -0.5        5.25
-1.3751e-12        -0.5         5.5
-1.3751e-12        -0.5        5.75
-1.3751e-12        -0.5           6
-1.3751e-12        -0.5        6.25
-1.3751e-12        -0.5         6.5
-1.3751e-12        -0.5        6.75
-1.3751e-12        -0.5           7
-1.3751e-12        -0.5        7.25
-1.3751e-12        -0.5         7.5
-1.3751e-12        -0.5        7.75
-1.3751e-12        -0.5           8
-1.3751e-12        -0.5        8.25
-1.3751e-12        -0.5         8.5
-1.3751e-12        -0.5        8.75
-1.3751e-12        -0.5           9
-1.3751e-12        -0.5        9.25
-1.3751e-12        -0.5         9.5
-1.3751e-12        -0.5        9.75
0.25        -0.5        0.25
0.25        -0.5         0.5
0.25        -0.5        0.75
0.25        -0.5           1
0.25        -0.5        1.25
0.25        -0.5         1.5
0.25        -0.5        1.75
0.25        -0.5           2
0.25        -0.5        2.25
0.25        -0.5         2.5
0.25        -0.5        2.75
0.25        -0.5           3
0.25        -0.5        3.25
0.25        -0.5         3.5
0.25        -0.5        3.75
0.25        -0.5           4
0.25        -0.5        4.25
0.25        -0.5         4.5
0.25        -0.5        4.75
0.25        -0.5           5
0.25        -0.5        5.25
0.25        -0.5         5.5
0.25        -0.5        5.75
0.25        -0.5           6
0.25        -0.5        6.25
0.25        -0.5         6.5
0.25        -0.5        6.75
0.25        -0.5           7
0.25        -0.5        7.25
0.25        -0.5         7.5
0.25        -0.5        7.75
0.25        -0.5           8
0.25        -0.5        8.25
0.25        -0.5         8.5
0.25        -0.5        8.75
0.25        -0.5           9
0.25        -0.5        9.25
0.25        -0.5         9.5
0.25        -0.5        9.75
0.5       -0.25        0.25
0.5       -0.25         0.5
0.5       -0.25        0.75
0.5       -0.25           1
0.5       -0.25        1.25
0.5       -0.25         1.5
0.5       -0.25        1.75
0.5       -0.25           2
0.5       -0.25        2.25
0.5       -0.25         2.5
0.5       -0.25        2.75
0.5       -0.25           3
0.5       -0.25        3.25
0.5       -0.25         3.5
0.5       -0.25        3.75
0.5       -0.25           4
0.5       -0.25        4.25
[...]
POINT_DATA 1025
VECTORS displacement double
0  0  0
0  0  0
0  0  0
0  0  0
1.1533      0.7706    -0.42673
-0.7706      1.1533    -0.42673
-1.1533     -0.7706    -0.42673
0.7706     -1.1533    -0.42673
0  0  0
0  0  0
0  0  0
0  0  0
0  0  0
0  0  0
0  0  0
0  0  0
0  0  0
0  0  0
0  0  0
0  0  0
0.67231     0.86627    -0.44166
0.19134     0.96194    -0.39794
-0.28963      1.0576    -0.36695
-0.86627     0.67231    -0.44166
-0.96194     0.19134    -0.39794
-1.0576    -0.28963    -0.36695
-0.67231    -0.86627    -0.44166
-0.19134    -0.96194    -0.39794
0.28963     -1.0576    -0.36695
0.86627    -0.67231    -0.44166
0.96194    -0.19134    -0.39794
1.0576     0.28963    -0.36695
0.11332    -0.06947  -0.0030319
0.25249    -0.13849   -0.015984
0.4035    -0.17647   -0.027719
0.55845    -0.18077   -0.038188
0.70979    -0.15051   -0.047844
0.85013   -0.087171   -0.057162
0.9726   0.0059643   -0.066426
1.0711     0.12415   -0.075713
1.1407     0.26138   -0.085022
1.1778      0.4107    -0.09434
1.1806     0.56455    -0.10366
1.1489     0.71513    -0.11298
1.0844     0.85482     -0.1223
0.99024     0.97652    -0.13162
0.87125      1.0741    -0.14094
0.73346      1.1426    -0.15026
0.58384      1.1785    -0.15957
0.42997      1.1801    -0.16889
0.27965      1.1472    -0.17821
0.14049      1.0815    -0.18753
0.019548     0.98639    -0.19685
-0.07706     0.86662    -0.20617
-0.14444     0.72828    -0.21549
-0.17917     0.57838    -0.22481
-0.17949      0.4245    -0.23412
-0.1454     0.27445    -0.24344
-0.078611     0.13583    -0.25276
0.017488    0.015652    -0.26208
0.13803    -0.07999     -0.2714
0.27691    -0.14625    -0.28072
0.42709    -0.17978    -0.29005
0.58096    -0.17889    -0.29938
0.73069    -0.14364    -0.30866
0.86868   -0.075862    -0.31782
0.98787    0.021132    -0.32673
1.0821       0.143    -0.33563
1.1462     0.28515      -0.346
1.1767     0.44253    -0.36202
1.1742     0.60786    -0.38841
0.06947     0.11332  -0.0030319
0.13849     0.25249   -0.015984
0.17647      0.4035   -0.027719
0.18077     0.55845   -0.038188
0.15051     0.70979   -0.047844
0.087171     0.85013   -0.057162
-0.0059643      0.9726   -0.066426
-0.12415      1.0711   -0.075713
-0.26138      1.1407   -0.085022
-0.4107      1.1778    -0.09434
-0.56455      1.1806    -0.10366
-0.71513      1.1489    -0.11298
-0.85482      1.0844     -0.1223
-0.97652     0.99024    -0.13162
-1.0741     0.87125    -0.14094
-1.1426     0.73346    -0.15026
-1.1785     0.58384    -0.15957
-1.1801     0.42997    -0.16889
-1.1472     0.27965    -0.17821
-1.0815     0.14049    -0.18753
-0.98639    0.019548    -0.19685
-0.86662    -0.07706    -0.20617
-0.72828    -0.14444    -0.21549
-0.57838    -0.17917    -0.22481
-0.4245    -0.17949    -0.23412
-0.27445     -0.1454    -0.24344
-0.13583   -0.078611    -0.25276
-0.015652    0.017488    -0.26208
0.07999     0.13803     -0.2714
0.14625     0.27691    -0.28072
0.17978     0.42709    -0.29005
0.17889     0.58096    -0.29938
0.14364     0.73069    -0.30866
0.075862     0.86868    -0.31782
-0.021132     0.98787    -0.32673
-0.143      1.0821    -0.33563
-0.28515      1.1462      -0.346
-0.44253      1.1767    -0.36202
-0.60786      1.1742    -0.38841
-0.11332     0.06947  -0.0030319
-0.25249     0.13849   -0.015984
-0.4035     0.17647   -0.027719
-0.55845     0.18077   -0.038188
-0.70979     0.15051   -0.047844
-0.85013    0.087171   -0.057162
-0.9726  -0.0059643   -0.066426
-1.0711    -0.12415   -0.075713
-1.1407    -0.26138   -0.085022
-1.1778     -0.4107    -0.09434
-1.1806    -0.56455    -0.10366
-1.1489    -0.71513    -0.11298
-1.0844    -0.85482     -0.1223
-0.99024    -0.97652    -0.13162
-0.87125     -1.0741    -0.14094
-0.73346     -1.1426    -0.15026
-0.58384     -1.1785    -0.15957
-0.42997     -1.1801    -0.16889
-0.27965     -1.1472    -0.17821
-0.14049     -1.0815    -0.18753
-0.019548    -0.98639    -0.19685
0.07706    -0.86662    -0.20617
0.14444    -0.72828    -0.21549
0.17917    -0.57838    -0.22481
0.17949     -0.4245    -0.23412
0.1454    -0.27445    -0.24344
0.078611    -0.13583    -0.25276
-0.017488   -0.015652    -0.26208
-0.13803     0.07999     -0.2714
-0.27691     0.14625    -0.28072
-0.42709     0.17978    -0.29005
-0.58096     0.17889    -0.29938
-0.73069     0.14364    -0.30866
-0.86868    0.075862    -0.31782
-0.98787   -0.021132    -0.32673
-1.0821      -0.143    -0.33563
-1.1462    -0.28515      -0.346
-1.1767    -0.44253    -0.36202
-1.1742    -0.60786    -0.38841
-0.06947    -0.11332  -0.0030319
-0.13849    -0.25249   -0.015984
-0.17647     -0.4035   -0.027719
-0.18077    -0.55845   -0.038188
-0.15051    -0.70979   -0.047844
-0.087171    -0.85013   -0.057162
0.0059643     -0.9726   -0.066426
0.12415     -1.0711   -0.075713
0.26138     -1.1407   -0.085022
0.4107     -1.1778    -0.09434
0.56455     -1.1806    -0.10366
0.71513     -1.1489    -0.11298
0.85482     -1.0844     -0.1223
0.97652    -0.99024    -0.13162
1.0741    -0.87125    -0.14094
1.1426    -0.73346    -0.15026
1.1785    -0.58384    -0.15957
1.1801    -0.42997    -0.16889
1.1472    -0.27965    -0.17821
1.0815    -0.14049    -0.18753
0.98639   -0.019548    -0.19685
0.86662     0.07706    -0.20617
0.72828     0.14444    -0.21549
0.57838     0.17917    -0.22481
0.4245     0.17949    -0.23412
0.27445      0.1454    -0.24344
0.13583    0.078611    -0.25276
0.015652   -0.017488    -0.26208
-0.07999    -0.13803     -0.2714
-0.14625    -0.27691    -0.28072
-0.17978    -0.42709    -0.29005
-0.17889    -0.58096    -0.29938
-0.14364    -0.73069    -0.30866
-0.075862    -0.86868    -0.31782
0.021132    -0.98787    -0.32673
0.143     -1.0821    -0.33563
0.28515     -1.1462      -0.346
0.44253     -1.1767    -0.36202
0.60786     -1.1742    -0.38841
0  0  0
0  0  0
0  0  0
0  0  0
0  0  0
0  0  0
0  0  0
0  0  0
0  0  0
0.10446   -0.026346    -0.03458
0.22231   -0.040259   -0.051184
0.34484   -0.031861   -0.062572
0.46233   0.0031569   -0.072399
0.56848    0.063251   -0.081712
0.65821      0.1455   -0.090959
0.72717     0.24574    -0.10024
0.77194     0.35888    -0.10954
0.79028     0.47917    -0.11886
0.78125     0.60052    -0.12818
0.74531     0.71679     -0.1375
0.68428     0.82207    -0.14682
0.60126     0.91104    -0.15614
0.50044     0.97918    -0.16546
0.38693      1.0231    -0.17478
0.26648      1.0404     -0.1841
0.14521      1.0304    -0.19341
0.029235     0.99355    -0.20273
-0.075552     0.93168    -0.21205
-0.16385     0.84794    -0.22137
-0.23118     0.74657    -0.23069
-0.27414     0.63272    -0.24001
-0.29054     0.51214    -0.24933
-0.27956     0.39094    -0.25865
-0.24176     0.27527    -0.26796
-0.17905     0.17099    -0.27728
-0.0946    0.083367     -0.2866
0.007305    0.016854    -0.29592
0.1215   -0.025185    -0.30524
0.24222   -0.040618    -0.31456
0.36332   -0.028667    -0.32388
0.47868    0.010048     -0.3332
0.58246    0.073528    -0.34249
0.6694     0.15853    -0.35172
0.73505     0.26083    -0.36087
0.77564     0.37572    -0.37018
0.78777     0.49831     -0.3806
0.76907      0.6235    -0.39448
0.7231     0.74353    -0.41292
0.10058    0.018528  -0.0064844
0.19764    0.054687   -0.017299
0.2921     0.11104   -0.028707
0.37248     0.18655   -0.038592
0.43356     0.27794    -0.04789
0.47237     0.38055   -0.057118
0.48713      0.4892   -0.066392
0.47721     0.59839   -0.075701
0.44311     0.70261    -0.08502
0.38658     0.79658   -0.094341
0.31046     0.87552    -0.10366
0.21861     0.93544    -0.11298
0.11569      0.9733     -0.1223
0.0069126     0.98719    -0.13162
-0.10222     0.97639    -0.14094
-0.20617     0.94147    -0.15026
-0.29968     0.88418    -0.15957
-0.37801     0.80743    -0.16889
-0.43718      0.7151    -0.17821
-0.47422     0.61188    -0.18753
-0.48723     0.50299    -0.19685
-0.47556     0.39395    -0.20617
-0.43979     0.29029    -0.21549
-0.38175     0.19724    -0.22481
-0.30438     0.11953    -0.23412
-0.21158      0.0611    -0.24344
-0.10806    0.024899    -0.25276
0.00092488    0.012765    -0.26208
0.10987    0.025314     -0.2714
0.21325     0.06191    -0.28072
0.30582      0.1207    -0.29004
0.38291     0.19869    -0.29938
0.44062     0.29191    -0.30871
0.47604      0.3956    -0.31801
0.48734     0.50451    -0.32713
0.47358     0.61325    -0.33583
0.43424     0.71662    -0.34416
0.36914     0.81002    -0.35403
0.282     0.88965    -0.37059
0.086733    0.070624    0.017773
0.16851      0.1573    0.015443
0.23385     0.26064   0.0057387
0.27564     0.37565  -0.0042896
0.2905     0.49674   -0.013898
0.27767     0.61783   -0.023266
0.23799     0.73286   -0.032569
0.17356     0.83607   -0.041872
0.08767     0.92227   -0.051184
-0.01532     0.98709   -0.060502
-0.1302      1.0272   -0.069821
-0.25114      1.0407    -0.07914
-0.37203      1.0267   -0.088459
-0.48674     0.98609   -0.097778
-0.58945     0.92084     -0.1071
-0.67497     0.83426    -0.11642
-0.73896     0.73075    -0.12573
-0.77818     0.61556    -0.13505
-0.79065     0.49451    -0.14437
-0.77573     0.37373    -0.15369
-0.73417     0.25936    -0.16301
-0.66809     0.15717    -0.17233
-0.58083    0.072353    -0.18165
-0.47681   0.0091972    -0.19097
-0.36131   -0.029096    -0.20029
-0.24016   -0.040588     -0.2096
-0.11951   -0.024694    -0.21892
-0.0054724    0.017778    -0.22824
0.096179     0.08468    -0.23756
0.18029     0.17262    -0.24688
0.24262     0.27715     -0.2562
0.27999     0.39296    -0.26553
0.29054     0.51416    -0.27486
0.27375     0.63459    -0.28414
0.23041     0.74807    -0.29325
0.16235      0.8488    -0.30207
0.071908     0.93171    -0.31092
-0.038395     0.99302    -0.32157
-0.16557      1.0324    -0.34023
0.026346     0.10446    -0.03458
0.040259     0.22231   -0.051184
0.031861     0.34484   -0.062572
-0.0031569     0.46233   -0.072399
-0.063251     0.56848   -0.081712
-0.1455     0.65821   -0.090959
-0.24574     0.72717    -0.10024
-0.35888     0.77194    -0.10954
-0.47917     0.79028    -0.11886
-0.60052     0.78125    -0.12818
-0.71679     0.74531     -0.1375
-0.82207     0.68428    -0.14682
-0.91104     0.60126    -0.15614
-0.97918     0.50044    -0.16546
-1.0231     0.38693    -0.17478
-1.0404     0.26648     -0.1841
-1.0304     0.14521    -0.19341
-0.99355    0.029235    -0.20273
-0.93168   -0.075552    -0.21205
-0.84794    -0.16385    -0.22137
-0.74657    -0.23118    -0.23069
-0.63272    -0.27414    -0.24001
-0.51214    -0.29054    -0.24933
-0.39094    -0.27956    -0.25865
-0.27527    -0.24176    -0.26796
-0.17099    -0.17905    -0.27728
-0.083367     -0.0946     -0.2866
-0.016854    0.007305    -0.29592
0.025185      0.1215    -0.30524
0.040618     0.24222    -0.31456
0.028667     0.36332    -0.32388
-0.010048     0.47868     -0.3332
-0.073528     0.58246    -0.34249
-0.15853      0.6694    -0.35172
-0.26083     0.73505    -0.36087
-0.37572     0.77564    -0.37018
-0.49831     0.78777     -0.3806
-0.6235     0.76907    -0.39448
-0.74353      0.7231    -0.41292
-0.018528     0.10058  -0.0064844
-0.054687     0.19764   -0.017299
-0.11104      0.2921   -0.028707
-0.18655     0.37248   -0.038592
-0.27794     0.43356    -0.04789
-0.38055     0.47237   -0.057118
-0.4892     0.48713   -0.066392
-0.59839     0.47721   -0.075701
-0.70261     0.44311    -0.08502
-0.79658     0.38658   -0.094341
-0.87552     0.31046    -0.10366
-0.93544     0.21861    -0.11298
-0.9733     0.11569     -0.1223
-0.98719   0.0069126    -0.13162
-0.97639    -0.10222    -0.14094
-0.94147    -0.20617    -0.15026
-0.88418    -0.29968    -0.15957
-0.80743    -0.37801    -0.16889
-0.7151    -0.43718    -0.17821
-0.61188    -0.47422    -0.18753
-0.50299    -0.48723    -0.19685
-0.39395    -0.47556    -0.20617
-0.29029    -0.43979    -0.21549
-0.19724    -0.38175    -0.22481
-0.11953    -0.30438    -0.23412
-0.0611    -0.21158    -0.24344
-0.024899    -0.10806    -0.25276
-0.012765  0.00092488    -0.26208
-0.025314     0.10987     -0.2714
-0.06191     0.21325    -0.28072
-0.1207     0.30582    -0.29004
-0.19869     0.38291    -0.29938
-0.29191     0.44062    -0.30871
-0.3956     0.47604    -0.31801
-0.50451     0.48734    -0.32713
-0.61325     0.47358    -0.33583
-0.71662     0.43424    -0.34416
-0.81002     0.36914    -0.35403
-0.88965       0.282    -0.37059
-0.070624    0.086733    0.017773
-0.1573     0.16851    0.015443
-0.26064     0.23385   0.0057387
-0.37565     0.27564  -0.0042896
-0.49674      0.2905   -0.013898
-0.61783     0.27767   -0.023266
-0.73286     0.23799   -0.032569
-0.83607     0.17356   -0.041872
-0.92227     0.08767   -0.051184
-0.98709    -0.01532   -0.060502
-1.0272     -0.1302   -0.069821
-1.0407    -0.25114    -0.07914
-1.0267    -0.37203   -0.088459
-0.98609    -0.48674   -0.097778
-0.92084    -0.58945     -0.1071
-0.83426    -0.67497    -0.11642
-0.73075    -0.73896    -0.12573
-0.61556    -0.77818    -0.13505
-0.49451    -0.79065    -0.14437
-0.37373    -0.77573    -0.15369
-0.25936    -0.73417    -0.16301
-0.15717    -0.66809    -0.17233
-0.072353    -0.58083    -0.18165
-0.0091972    -0.47681    -0.19097
0.029096    -0.36131    -0.20029
0.040588    -0.24016     -0.2096
0.024694    -0.11951    -0.21892
-0.017778  -0.0054724    -0.22824
-0.08468    0.096179    -0.23756
-0.17262     0.18029    -0.24688
-0.27715     0.24262     -0.2562
-0.39296     0.27999    -0.26553
-0.51416     0.29054    -0.27486
-0.63459     0.27375    -0.28414
-0.74807     0.23041    -0.29325
-0.8488     0.16235    -0.30207
-0.93171    0.071908    -0.31092
-0.99302   -0.038395    -0.32157
-1.0324    -0.16557    -0.34023
-0.10446    0.026346    -0.03458
-0.22231    0.040259   -0.051184
-0.34484    0.031861   -0.062572
-0.46233  -0.0031569   -0.072399
-0.56848   -0.063251   -0.081712
-0.65821     -0.1455   -0.090959
-0.72717    -0.24574    -0.10024
-0.77194    -0.35888    -0.10954
-0.79028    -0.47917    -0.11886
-0.78125    -0.60052    -0.12818
-0.74531    -0.71679     -0.1375
-0.68428    -0.82207    -0.14682
-0.60126    -0.91104    -0.15614
-0.50044    -0.97918    -0.16546
-0.38693     -1.0231    -0.17478
-0.26648     -1.0404     -0.1841
-0.14521     -1.0304    -0.19341
-0.029235    -0.99355    -0.20273
0.075552    -0.93168    -0.21205
0.16385    -0.84794    -0.22137
0.23118    -0.74657    -0.23069
0.27414    -0.63272    -0.24001
0.29054    -0.51214    -0.24933
0.27956    -0.39094    -0.25865
0.24176    -0.27527    -0.26796
0.17905    -0.17099    -0.27728
0.0946   -0.083367     -0.2866
-0.007305   -0.016854    -0.29592
-0.1215    0.025185    -0.30524
-0.24222    0.040618    -0.31456
-0.36332    0.028667    -0.32388
-0.47868   -0.010048     -0.3332
-0.58246   -0.073528    -0.34249
-0.6694    -0.15853    -0.35172
-0.73505    -0.26083    -0.36087
-0.77564    -0.37572    -0.37018
-0.78777    -0.49831     -0.3806
-0.76907     -0.6235    -0.39448
-0.7231    -0.74353    -0.41292
-0.10058   -0.018528  -0.0064844
-0.19764   -0.054687   -0.017299
-0.2921    -0.11104   -0.028707
-0.37248    -0.18655   -0.038592
-0.43356    -0.27794    -0.04789
-0.47237    -0.38055   -0.057118
-0.48713     -0.4892   -0.066392
-0.47721    -0.59839   -0.075701
-0.44311    -0.70261    -0.08502
-0.38658    -0.79658   -0.094341
-0.31046    -0.87552    -0.10366
-0.21861    -0.93544    -0.11298
-0.11569     -0.9733     -0.1223
-0.0069126    -0.98719    -0.13162
0.10222    -0.97639    -0.14094
0.20617    -0.94147    -0.15026
0.29968    -0.88418    -0.15957
0.37801    -0.80743    -0.16889
0.43718     -0.7151    -0.17821
0.47422    -0.61188    -0.18753
0.48723    -0.50299    -0.19685
0.47556    -0.39395    -0.20617
0.43979    -0.29029    -0.21549
0.38175    -0.19724    -0.22481
0.30438    -0.11953    -0.23412
0.21158     -0.0611    -0.24344
0.10806   -0.024899    -0.25276
-0.00092488   -0.012765    -0.26208
-0.10987   -0.025314     -0.2714
-0.21325    -0.06191    -0.28072
-0.30582     -0.1207    -0.29004
-0.38291    -0.19869    -0.29938
-0.44062    -0.29191    -0.30871
-0.47604     -0.3956    -0.31801
-0.48734    -0.50451    -0.32713
-0.47358    -0.61325    -0.33583
-0.43424    -0.71662    -0.34416
-0.36914    -0.81002    -0.35403
-0.282    -0.88965    -0.37059
-0.086733   -0.070624    0.017773
-0.16851     -0.1573    0.015443
-0.23385    -0.26064   0.0057387
-0.27564    -0.37565  -0.0042896
-0.2905    -0.49674   -0.013898
-0.27767    -0.61783   -0.023266
-0.23799    -0.73286   -0.032569
-0.17356    -0.83607   -0.041872
-0.08767    -0.92227   -0.051184
0.01532    -0.98709   -0.060502
0.1302     -1.0272   -0.069821
0.25114     -1.0407    -0.07914
0.37203     -1.0267   -0.088459
0.48674    -0.98609   -0.097778
0.58945    -0.92084     -0.1071
0.67497    -0.83426    -0.11642
0.73896    -0.73075    -0.12573
0.77818    -0.61556    -0.13505
0.79065    -0.49451    -0.14437
0.77573    -0.37373    -0.15369
0.73417    -0.25936    -0.16301
0.66809    -0.15717    -0.17233
0.58083   -0.072353    -0.18165
0.47681  -0.0091972    -0.19097
0.36131    0.029096    -0.20029
0.24016    0.040588     -0.2096
0.11951    0.024694    -0.21892
0.0054724   -0.017778    -0.22824
-0.096179    -0.08468    -0.23756
-0.18029    -0.17262    -0.24688
-0.24262    -0.27715     -0.2562
-0.27999    -0.39296    -0.26553
-0.29054    -0.51416    -0.27486
-0.27375    -0.63459    -0.28414
-0.23041    -0.74807    -0.29325
-0.16235     -0.8488    -0.30207
-0.071908    -0.93171    -0.31092
0.038395    -0.99302    -0.32157
0.16557     -1.0324    -0.34023
-0.026346    -0.10446    -0.03458
-0.040259    -0.22231   -0.051184
-0.031861    -0.34484   -0.062572
0.0031569    -0.46233   -0.072399
0.063251    -0.56848   -0.081712
0.1455    -0.65821   -0.090959
0.24574    -0.72717    -0.10024
0.35888    -0.77194    -0.10954
0.47917    -0.79028    -0.11886
0.60052    -0.78125    -0.12818
0.71679    -0.74531     -0.1375
0.82207    -0.68428    -0.14682
0.91104    -0.60126    -0.15614
0.97918    -0.50044    -0.16546
1.0231    -0.38693    -0.17478
1.0404    -0.26648     -0.1841
1.0304    -0.14521    -0.19341
0.99355   -0.029235    -0.20273
0.93168    0.075552    -0.21205
0.84794     0.16385    -0.22137
0.74657     0.23118    -0.23069
0.63272     0.27414    -0.24001
0.51214     0.29054    -0.24933
0.39094     0.27956    -0.25865
0.27527     0.24176    -0.26796
0.17099     0.17905    -0.27728
0.083367      0.0946     -0.2866
0.016854   -0.007305    -0.29592
-0.025185     -0.1215    -0.30524
-0.040618    -0.24222    -0.31456
-0.028667    -0.36332    -0.32388
0.010048    -0.47868     -0.3332
0.073528    -0.58246    -0.34249
0.15853     -0.6694    -0.35172
0.26083    -0.73505    -0.36087
0.37572    -0.77564    -0.37018
0.49831    -0.78777     -0.3806
0.6235    -0.76907    -0.39448
0.74353     -0.7231    -0.41292
0.018528    -0.10058  -0.0064844
0.054687    -0.19764   -0.017299
0.11104     -0.2921   -0.028707
0.18655    -0.37248   -0.038592
0.27794    -0.43356    -0.04789
0.38055    -0.47237   -0.057118
0.4892    -0.48713   -0.066392
0.59839    -0.47721   -0.075701
0.70261    -0.44311    -0.08502
0.79658    -0.38658   -0.094341
0.87552    -0.31046    -0.10366
0.93544    -0.21861    -0.11298
0.9733    -0.11569     -0.1223
0.98719  -0.0069126    -0.13162
0.97639     0.10222    -0.14094
0.94147     0.20617    -0.15026
0.88418     0.29968    -0.15957
0.80743     0.37801    -0.16889
0.7151     0.43718    -0.17821
0.61188     0.47422    -0.18753
0.50299     0.48723    -0.19685
0.39395     0.47556    -0.20617
0.29029     0.43979    -0.21549
0.19724     0.38175    -0.22481
0.11953     0.30438    -0.23412
0.0611     0.21158    -0.24344
0.024899     0.10806    -0.25276
0.012765 -0.00092488    -0.26208
0.025314    -0.10987     -0.2714
0.06191    -0.21325    -0.28072
0.1207    -0.30582    -0.29004
0.19869    -0.38291    -0.29938
0.29191    -0.44062    -0.30871
0.3956    -0.47604    -0.31801
0.50451    -0.48734    -0.32713
0.61325    -0.47358    -0.33583
0.71662    -0.43424    -0.34416
0.81002    -0.36914    -0.35403
0.88965      -0.282    -0.37059
0.070624   -0.086733    0.017773
0.1573    -0.16851    0.015443
0.26064    -0.23385   0.0057387
0.37565    -0.27564  -0.0042896
0.49674     -0.2905   -0.013898
0.61783    -0.27767   -0.023266