# vtk DataFile Version 3.0
VTK Output
ASCII
DATASET UNSTRUCTURED_GRID

POINTS 1025 float
-0.5        -0.5           0
0.5        -0.5           0
0.5         0.5           0
-0.5         0.5           0
-0.5         -0.5           10
0.5         -0.5           10
0.5          0.5           10
-0.5          0.5           10
-0.25        -0.5           0
-1.3751e-12        -0.5           0
0.25        -0.5           0
0.5       -0.25           0
0.5 -1.3751e-12           0
0.5        0.25           0
0.25         0.5           0
1.3751e-12         0.5           0
-0.25         0.5           0
-0.5        0.25           0
-0.5  1.3751e-12           0
-0.5       -0.25           0
-0.25         -0.5           10
-1.37512e-12         -0.5           10
0.25         -0.5           10
0.5        -0.25           10
0.5 -1.37512e-12           10
0.5         0.25           10
0.25          0.5           10
1.37512e-12          0.5           10
-0.25          0.5           10
-0.5         0.25           10
-0.5  1.37512e-12           10
-0.5        -0.25           10
-0.5        -0.5        0.25
-0.5        -0.5         0.5
-0.5        -0.5        0.75
-0.5        -0.5           1
-0.5        -0.5        1.25
-0.5        -0.5         1.5
-0.5        -0.5        1.75
-0.5        -0.5           2
-0.5        -0.5        2.25
-0.5        -0.5         2.5
-0.5        -0.5        2.75
-0.5        -0.5           3
-0.5        -0.5        3.25
-0.5        -0.5         3.5
-0.5        -0.5        3.75
-0.5        -0.5           4
-0.5        -0.5        4.25
-0.5        -0.5         4.5
-0.5        -0.5        4.75
-0.5        -0.5           5
-0.5        -0.5        5.25
-0.5        -0.5         5.5
-0.5        -0.5        5.75
-0.5        -0.5           6
-0.5        -0.5        6.25
-0.5        -0.5         6.5
-0.5        -0.5        6.75
-0.5        -0.5           7
-0.5        -0.5        7.25
-0.5        -0.5         7.5
-0.5        -0.5        7.75
-0.5        -0.5           8
-0.5        -0.5        8.25
-0.5        -0.5         8.5
-0.5        -0.5        8.75
-0.5        -0.5           9
-0.5        -0.5        9.25
-0.5        -0.5         9.5
-0.5        -0.5        9.75
0.5        -0.5        0.25
0.5        -0.5         0.5
0.5        -0.5        0.75
0.5        -0.5           1
0.5        -0.5        1.25
0.5        -0.5         1.5
0.5        -0.5        1.75
0.5        -0.5           2
0.5        -0.5        2.25
0.5        -0.5         2.5
0.5        -0.5        2.75
0.5        -0.5           3
0.5        -0.5        3.25
0.5        -0.5         3.5
0.5        -0.5        3.75
0.5        -0.5           4
0.5        -0.5        4.25
0.5        -0.5         4.5
0.5        -0.5        4.75
0.5        -0.5           5
0.5        -0.5        5.25
0.5        -0.5         5.5
0.5        -0.5        5.75
0.5        -0.5           6
0.5        -0.5        6.25
0.5        -0.5         6.5
0.5        -0.5        6.75
0.5        -0.5           7
0.5        -0.5        7.25
0.5        -0.5         7.5
0.5        -0.5        7.75
0.5        -0.5           8
0.5        -0.5        8.25
0.5        -0.5         8.5
0.5        -0.5        8.75
0.5        -0.5           9
0.5        -0.5        9.25
0.5        -0.5         9.5
0.5        -0.5        9.75
0.5         0.5        0.25
0.5         0.5         0.5
0.5         0.5        0.75
0.5         0.5           1
0.5         0.5        1.25
0.5         0.5         1.5
0.5         0.5        1.75
0.5         0.5           2
0.5         0.5        2.25
0.5         0.5         2.5
0.5         0.5        2.75
0.5         0.5           3
0.5         0.5        3.25
0.5         0.5         3.5
0.5         0.5        3.75
0.5         0.5           4
0.5         0.5        4.25
0.5         0.5         4.5
0.5         0.5        4.75
0.5         0.5           5
0.5         0.5        5.25
0.5         0.5         5.5
0.5         0.5        5.75
0.5         0.5           6
0.5         0.5        6.25
0.5         0.5         6.5
0.5         0.5        6.75
0.5         0.5           7
0.5         0.5        7.25
0.5         0.5         7.5
0.5         0.5        7.75
0.5         0.5           8
0.5         0.5        8.25
0.5         0.5         8.5
0.5         0.5        8.75
0.5         0.5           9
0.5         0.5        9.25
0.5         0.5         9.5
0.5         0.5        9.75
-0.5         0.5        0.25
-0.5         0.5         0.5
-0.5         0.5        0.75
-0.5         0.5           1
-0.5         0.5        1.25
-0.5         0.5         1.5
-0.5         0.5        1.75
-0.5         0.5           2
-0.5         0.5        2.25
-0.5         0.5         2.5
-0.5         0.5        2.75
-0.5         0.5           3
-0.5         0.5        3.25
-0.5         0.5         3.5
-0.5         0.5        3.75
-0.5         0.5           4
-0.5         0.5        4.25
-0.5         0.5         4.5
-0.5         0.5        4.75
-0.5         0.5           5
-0.5         0.5        5.25
-0.5         0.5         5.5
-0.5         0.5        5.75
-0.5         0.5           6
-0.5         0.5        6.25
-0.5         0.5         6.5
-0.5         0.5        6.75
-0.5         0.5           7
-0.5         0.5        7.25
-0.5         0.5         7.5
-0.5         0.5        7.75
-0.5         0.5           8
-0.5         0.5        8.25
-0.5         0.5         8.5
-0.5         0.5        8.75
-0.5         0.5           9
-0.5         0.5        9.25
-0.5         0.5         9.5
-0.5         0.5        9.75
-0.25       -0.25           0
-0.25  6.8756e-13           0
-0.25        0.25           0
-6.8756e-13       -0.25           0
-3.7821e-24           0           0
6.8756e-13        0.25           0
0.25       -0.25           0
0.25 -6.8756e-13           0
0.25        0.25           0
-0.25        -0.5        0.25
-0.25        -0.5         0.5
-0.25        -0.5        0.75
-0.25        -0.5           1
-0.25        -0.5        1.25
-0.25        -0.5         1.5
-0.25        -0.5        1.75
-0.25        -0.5           2
-0.25        -0.5        2.25
-0.25        -0.5         2.5
-0.25        -0.5        2.75
-0.25        -0.5           3
-0.25        -0.5        3.25
-0.25        -0.5         3.5
-0.25        -0.5        3.75
-0.25        -0.5           4
-0.25        -0.5        4.25
-0.25        -0.5         4.5
-0.25        -0.5        4.75
-0.25        -0.5           5
-0.25        -0.5        5.25
-0.25        -0.5         5.5
-0.25        -0.5        5.75
-0.25        -0.5           6
-0.25        -0.5        6.25
-0.25        -0.5         6.5
-0.25        -0.5        6.75
-0.25        -0.5           7
-0.25        -0.5        7.25
-0.25        -0.5         7.5
-0.25        -0.5        7.75
-0.25        -0.5           8
-0.25        -0.5        8.25
-0.25        -0.5         8.5
-0.25        -0.5        8.75
-0.25        -0.5           9
-0.25        -0.5        9.25
-0.25        -0.5         9.5
-0.25        -0.5        9.75
-1.3751e-12        -0.5        0.25
-1.3751e-12        -0.5         0.5
-1.3751e-12        -0.5        0.75
-1.3751e-12        -0.5           1
-1.3751e-12        -0.5        1.25
-1.3751e-12        -0.5         1.5
-1.3751e-12        -0.5        1.75
-1.3751e-12        -0.5           2
-1.3751e-12        -0.5        2.25
-1.3751e-12        -0.5         2.5
-1.3751e-12        -0.5        2.75
-1.3751e-12        -0.5           3
-1.3751e-12        -0.5        3.25
-1.3751e-12        -0.5         3.5
-1.3751e-12        -0.5        3.75
-1.3751e-12        -0.5           4
-1.3751e-12        -0.5        4.25
-1.3751e-12        -0.5         4.5
-1.3751e-12        -0.5        4.75
-1.3751e-12        -0.5           5
-1.3751e-12        -0.5        5.25
-1.3751e-12        -0.5         5.5
-1.3751e-12        -0.5        5.75
-1.3751e-12        -0.5           6
-1.3751e-12        -0.5        6.25
-1.3751e-12        -0.5         6.5
-1.3751e-12        -0.5        6.75
-1.3751e-12        -0.5           7
-1.3751e-12        -0.5        7.25
-1.3751e-12        -0.5         7.5
-1.3751e-12        -0.5        7.75
-1.3751e-12        -0.5           8
-1.3751e-12        -0.5        8.25
-1.3751e-12        -0.5         8.5
-1.3751e-12        -0.5        8.75
-1.3751e-12        -0.5           9
-1.3751e-12        -0.5        9.25
-1.3751e-12        -0.5         9.5
-1.3751e-12        -0.5        9.75
0.25        -0.5        0.25
0.25        -0.5         0.5
0.25        -0.5        0.75
0.25        -0.5           1
0.25        -0.5        1.25
0.25        -0.5         1.5
0.25        -0.5        1.75
0.25        -0.5           2
0.25        -0.5        2.25
0.25        -0.5         2.5
0.25        -0.5        2.75
0.25        -0.5           3
0.25        -0.5        3.25
0.25        -0.5         3.5
0.25        -0.5        3.75
0.25        -0.5           4
0.25        -0.5        4.25
0.25        -0.5         4.5
0.25        -0.5        4.75
0.25        -0.5           5
0.25        -0.5        5.25
0.25        -0.5         5.5
0.25        -0.5        5.75
0.25        -0.5           6
0.25        -0.5        6.25
0.25        -0.5         6.5
0.25        -0.5        6.75
0.25        -0.5           7
0.25        -0.5        7.25
0.25        -0.5         7.5
0.25        -0.5        7.75
0.25        -0.5           8
0.25        -0.5        8.25
0.25        -0.5         8.5
0.25        -0.5        8.75
0.25        -0.5           9
0.25        -0.5        9.25
0.25        -0.5         9.5
0.25        -0.5        9.75
0.5       -0.25        0.25
0.5       -0.25         0.5
0.5       -0.25        0.75
0.5       -0.25           1
0.5       -0.25        1.25
0.5       -0.25         1.5
0.5       -0.25        1.75
0.5       -0.25           2
0.5       -0.25        2.25
0.5       -0.25         2.5
0.5       -0.25        2.75
0.5       -0.25           3
0.5       -0.25        3.25
0.5       -0.25         3.5
0.5       -0.25        3.75
0.5       -0.25           4
0.5       -0.25        4.25
[...]
POINT_DATA 1025
VECTORS displacement double
0  0  0
0  0  0
0  0  0
0  0  0
0.2294      1.1533    -0.10102
-1.1533      0.2294    -0.10102
-0.2294     -1.1533    -0.10102
1.1533     -0.2294    -0.10102
0  0  0
0  0  0
0  0  0
0  0  0
0  0  0
0  0  0
0  0  0
0  0  0
0  0  0
0  0  0
0  0  0
0  0  0
-0.11627     0.92231    -0.11313
-0.46194     0.69134   -0.094972
-0.80761     0.46037   -0.079808
-0.92231    -0.11627    -0.11313
-0.69134    -0.46194   -0.094972
-0.46037    -0.80761   -0.079808
0.11627    -0.92231    -0.11313
0.46194    -0.69134   -0.094972
0.80761    -0.46037   -0.079808
0.92231     0.11627    -0.11313
0.69134     0.46194   -0.094972
0.46037     0.80761   -0.079808
0.052028   -0.041306 -0.00091058
0.11512   -0.087232   -0.004293
0.18147    -0.12542  -0.0069586
0.25097    -0.15617  -0.0093776
0.32327    -0.17925   -0.011692
0.39762    -0.19437   -0.013961
0.47316    -0.20137   -0.016221
0.54902    -0.20017   -0.018482
0.6243    -0.19079   -0.020746
0.69813    -0.17334    -0.02301
0.76965    -0.14802   -0.025274
0.83801    -0.11513   -0.027539
0.90243   -0.075053   -0.029803
0.96215   -0.028259   -0.032068
1.0165    0.024707   -0.034332
1.0647    0.083225   -0.036596
1.1064     0.14661   -0.038861
1.141     0.21413   -0.041125
1.1681     0.28499    -0.04339
1.1874     0.35835   -0.045654
1.1987     0.43338   -0.047919
1.2018     0.50918   -0.050183
1.1967     0.58487   -0.052447
1.1835     0.65958   -0.054712
1.1623     0.73242   -0.056976
1.1333     0.80254   -0.059241
1.097     0.86913   -0.061505
1.0537      0.9314    -0.06377
1.0039     0.98864   -0.066034
0.94817      1.0402   -0.068299
0.88725      1.0854   -0.070564
0.82181      1.1238   -0.072827
0.75261      1.1549   -0.075087
0.68047      1.1783   -0.077333
0.60621      1.1938   -0.079556
0.53067      1.2011   -0.081791
0.45462      1.2001   -0.084255
0.37874      1.1908   -0.087637
0.30354      1.1742   -0.092931
0.041306    0.052028 -0.00091058
0.087232     0.11512   -0.004293
0.12542     0.18147  -0.0069586
0.15617     0.25097  -0.0093776
0.17925     0.32327   -0.011692
0.19437     0.39762   -0.013961
0.20137     0.47316   -0.016221
0.20017     0.54902   -0.018482
0.19079      0.6243   -0.020746
0.17334     0.69813    -0.02301
0.14802     0.76965   -0.025274
0.11513     0.83801   -0.027539
0.075053     0.90243   -0.029803
0.028259     0.96215   -0.032068
-0.024707      1.0165   -0.034332
-0.083225      1.0647   -0.036596
-0.14661      1.1064   -0.038861
-0.21413       1.141   -0.041125
-0.28499      1.1681    -0.04339
-0.35835      1.1874   -0.045654
-0.43338      1.1987   -0.047919
-0.50918      1.2018   -0.050183
-0.58487      1.1967   -0.052447
-0.65958      1.1835   -0.054712
-0.73242      1.1623   -0.056976
-0.80254      1.1333   -0.059241
-0.86913       1.097   -0.061505
-0.9314      1.0537    -0.06377
-0.98864      1.0039   -0.066034
-1.0402     0.94817   -0.068299
-1.0854     0.88725   -0.070564
-1.1238     0.82181   -0.072827
-1.1549     0.75261   -0.075087
-1.1783     0.68047   -0.077333
-1.1938     0.60621   -0.079556
-1.2011     0.53067   -0.081791
-1.2001     0.45462   -0.084255
-1.1908     0.37874   -0.087637
-1.1742     0.30354   -0.092931
-0.052028    0.041306 -0.00091058
-0.11512    0.087232   -0.004293
-0.18147     0.12542  -0.0069586
-0.25097     0.15617  -0.0093776
-0.32327     0.17925   -0.011692
-0.39762     0.19437   -0.013961
-0.47316     0.20137   -0.016221
-0.54902     0.20017   -0.018482
-0.6243     0.19079   -0.020746
-0.69813     0.17334    -0.02301
-0.76965     0.14802   -0.025274
-0.83801     0.11513   -0.027539
-0.90243    0.075053   -0.029803
-0.96215    0.028259   -0.032068
-1.0165   -0.024707   -0.034332
-1.0647   -0.083225   -0.036596
-1.1064    -0.14661   -0.038861
-1.141    -0.21413   -0.041125
-1.1681    -0.28499    -0.04339
-1.1874    -0.35835   -0.045654
-1.1987    -0.43338   -0.047919
-1.2018    -0.50918   -0.050183
-1.1967    -0.58487   -0.052447
-1.1835    -0.65958   -0.054712
-1.1623    -0.73242   -0.056976
-1.1333    -0.80254   -0.059241
-1.097    -0.86913   -0.061505
-1.0537     -0.9314    -0.06377
-1.0039    -0.98864   -0.066034
-0.94817     -1.0402   -0.068299
-0.88725     -1.0854   -0.070564
-0.82181     -1.1238   -0.072827
-0.75261     -1.1549   -0.075087
-0.68047     -1.1783   -0.077333
-0.60621     -1.1938   -0.079556
-0.53067     -1.2011   -0.081791
-0.45462     -1.2001   -0.084255
-0.37874     -1.1908   -0.087637
-0.30354     -1.1742   -0.092931
-0.041306   -0.052028 -0.00091058
-0.087232    -0.11512   -0.004293
-0.12542    -0.18147  -0.0069586
-0.15617    -0.25097  -0.0093776
-0.17925    -0.32327   -0.011692
-0.19437    -0.39762   -0.013961
-0.20137    -0.47316   -0.016221
-0.20017    -0.54902   -0.018482
-0.19079     -0.6243   -0.020746
-0.17334    -0.69813    -0.02301
-0.14802    -0.76965   -0.025274
-0.11513    -0.83801   -0.027539
-0.075053    -0.90243   -0.029803
-0.028259    -0.96215   -0.032068
0.024707     -1.0165   -0.034332
0.083225     -1.0647   -0.036596
0.14661     -1.1064   -0.038861
0.21413      -1.141   -0.041125
0.28499     -1.1681    -0.04339
0.35835     -1.1874   -0.045654
0.43338     -1.1987   -0.047919
0.50918     -1.2018   -0.050183
0.58487     -1.1967   -0.052447
0.65958     -1.1835   -0.054712
0.73242     -1.1623   -0.056976
0.80254     -1.1333   -0.059241
0.86913      -1.097   -0.061505
0.9314     -1.0537    -0.06377
0.98864     -1.0039   -0.066034
1.0402    -0.94817   -0.068299
1.0854    -0.88725   -0.070564
1.1238    -0.82181   -0.072827
1.1549    -0.75261   -0.075087
1.1783    -0.68047   -0.077333
1.1938    -0.60621   -0.079556
1.2011    -0.53067   -0.081791
1.2001    -0.45462   -0.084255
1.1908    -0.37874   -0.087637
1.1742    -0.30354   -0.092931
0  0  0
0  0  0
0  0  0
0  0  0
0  0  0
0  0  0
0  0  0
0  0  0
0  0  0
0.051651   -0.019206   -0.015216
0.10795   -0.036307   -0.020698
0.16688    -0.04853   -0.023336
0.22669   -0.054302   -0.025643
0.28668   -0.053609   -0.027903
0.34622    -0.04643   -0.030162
0.40464   -0.032857   -0.032423
0.46124   -0.013055   -0.034686
0.51538    0.012741   -0.036951
0.56642    0.044231   -0.039215
0.61377    0.081045   -0.041479
0.65686     0.12275   -0.043744
0.6952     0.16887   -0.046008
0.72834     0.21886   -0.048273
0.75589     0.27212   -0.050537
0.77753     0.32806   -0.052802
0.793       0.386   -0.055066
0.80214     0.44527    -0.05733
0.80482     0.50518   -0.059595
0.80102     0.56503   -0.061859
0.79078     0.62413   -0.064124
0.77422     0.68177   -0.066388
0.75154     0.73728   -0.068653
0.723     0.79003   -0.070917
0.68894     0.83939   -0.073181
0.64974     0.88478   -0.075446
0.60588     0.92568    -0.07771
0.55785      0.9616   -0.079975
0.50624     0.99213   -0.082239
0.45162      1.0169   -0.084504
0.39465      1.0357   -0.086768
0.336      1.0481   -0.089032
0.27634      1.0542   -0.091294
0.21637      1.0538   -0.093551
0.1568       1.047     -0.0958
0.09829      1.0336   -0.098062
0.041496      1.0137    -0.10044
-0.013028      0.9875    -0.10327
-0.064676     0.95582    -0.10709
0.052122   0.0047715   -0.001909
0.10196    0.013583  -0.0044633
0.15363    0.027492  -0.0071049
0.20383    0.046802  -0.0094467
0.2516     0.07143   -0.011702
0.2964     0.10108   -0.013956
0.33773      0.1354   -0.016217
0.37511     0.17398   -0.018481
0.4081     0.21637   -0.020745
0.43633     0.26207    -0.02301
0.45946     0.31056   -0.025274
0.47722     0.36125   -0.027539
0.48941     0.41357   -0.029803
0.49588      0.4669   -0.032068
0.49656     0.52061   -0.034332
0.49143     0.57409   -0.036596
0.48056     0.62669   -0.038861
0.46408     0.67782   -0.041125
0.44218     0.72687    -0.04339
0.41511     0.77327   -0.045654
0.38319     0.81648   -0.047919
0.34679     0.85599   -0.050183
0.30635     0.89134   -0.052447
0.26232     0.92211   -0.054712
0.21523     0.94796   -0.056976
0.16562     0.96857   -0.059241
0.11408     0.98371   -0.061505
0.061207      0.9932    -0.06377
0.0076184     0.99692   -0.066034
-0.04606     0.99484   -0.068298
-0.099199     0.98698   -0.070563
-0.15118     0.97343   -0.072828
-0.20139     0.95435   -0.075094
-0.24925     0.92997   -0.077356
-0.29419     0.90055   -0.079604
-0.33567     0.86639    -0.08181
-0.37316     0.82776   -0.083955
-0.40619     0.78492   -0.086201
-0.4349     0.73857    -0.08946
0.047291    0.030348    0.010723
0.09499    0.065276    0.011579
0.13978     0.10527   0.0092224
0.18018     0.14968   0.0068217
0.21553     0.19816    0.004518
0.24541     0.25017   0.0022495
0.26948      0.3051 -1.3246e-05
0.28749     0.36231  -0.0022764
0.29921     0.42112  -0.0045404
0.30451     0.48086  -0.0068047
0.30334     0.54082  -0.0090691
0.2957      0.6003   -0.011334
0.28169     0.65861   -0.013598
0.26146     0.71507   -0.015862
0.23526     0.76902   -0.018127
0.20339     0.81982   -0.020391
0.16622     0.86689   -0.022656
0.12419     0.90967    -0.02492
0.077791     0.94766   -0.027185
0.02756     0.98043   -0.029449
-0.025914      1.0076   -0.031713
-0.082006      1.0288   -0.033978
-0.14006      1.0438   -0.036242
-0.1994      1.0525   -0.038507
-0.25933      1.0548   -0.040771
-0.31915      1.0505   -0.043036
-0.37817      1.0398     -0.0453
-0.43568      1.0228   -0.047564
-0.49103     0.99975   -0.049829
-0.54356     0.97082   -0.052093
-0.59266     0.93639   -0.054358
-0.63776     0.89685   -0.056623
-0.67833     0.85269   -0.058886
-0.71389      0.8044   -0.061144
-0.74401     0.75256   -0.063388
-0.76831     0.69774    -0.06561
-0.78642      0.6405    -0.06786
-0.79817     0.58136     -0.0704
-0.80412      0.5205   -0.074129
0.019206    0.051651   -0.015216
0.036307     0.10795   -0.020698
0.04853     0.16688   -0.023336
0.054302     0.22669   -0.025643
0.053609     0.28668   -0.027903
0.04643     0.34622   -0.030162
0.032857     0.40464   -0.032423
0.013055     0.46124   -0.034686
-0.012741     0.51538   -0.036951
-0.044231     0.56642   -0.039215
-0.081045     0.61377   -0.041479
-0.12275     0.65686   -0.043744
-0.16887      0.6952   -0.046008
-0.21886     0.72834   -0.048273
-0.27212     0.75589   -0.050537
-0.32806     0.77753   -0.052802
-0.386       0.793   -0.055066
-0.44527     0.80214    -0.05733
-0.50518     0.80482   -0.059595
-0.56503     0.80102   -0.061859
-0.62413     0.79078   -0.064124
-0.68177     0.77422   -0.066388
-0.73728     0.75154   -0.068653
-0.79003       0.723   -0.070917
-0.83939     0.68894   -0.073181
-0.88478     0.64974   -0.075446
-0.92568     0.60588    -0.07771
-0.9616     0.55785   -0.079975
-0.99213     0.50624   -0.082239
-1.0169     0.45162   -0.084504
-1.0357     0.39465   -0.086768
-1.0481       0.336   -0.089032
-1.0542     0.27634   -0.091294
-1.0538     0.21637   -0.093551
-1.047      0.1568     -0.0958
-1.0336     0.09829   -0.098062
-1.0137    0.041496    -0.10044
-0.9875   -0.013028    -0.10327
-0.95582   -0.064676    -0.10709
-0.0047715    0.052122   -0.001909
-0.013583     0.10196  -0.0044633
-0.027492     0.15363  -0.0071049
-0.046802     0.20383  -0.0094467
-0.07143      0.2516   -0.011702
-0.10108      0.2964   -0.013956
-0.1354     0.33773   -0.016217
-0.17398     0.37511   -0.018481
-0.21637      0.4081   -0.020745
-0.26207     0.43633    -0.02301
-0.31056     0.45946   -0.025274
-0.36125     0.47722   -0.027539
-0.41357     0.48941   -0.029803
-0.4669     0.49588   -0.032068
-0.52061     0.49656   -0.034332
-0.57409     0.49143   -0.036596
-0.62669     0.48056   -0.038861
-0.67782     0.46408   -0.041125
-0.72687     0.44218    -0.04339
-0.77327     0.41511   -0.045654
-0.81648     0.38319   -0.047919
-0.85599     0.34679   -0.050183
-0.89134     0.30635   -0.052447
-0.92211     0.26232   -0.054712
-0.94796     0.21523   -0.056976
-0.96857     0.16562   -0.059241
-0.98371     0.11408   -0.061505
-0.9932    0.061207    -0.06377
-0.99692   0.0076184   -0.066034
-0.99484    -0.04606   -0.068298
-0.98698   -0.099199   -0.070563
-0.97343    -0.15118   -0.072828
-0.95435    -0.20139   -0.075094
-0.92997    -0.24925   -0.077356
-0.90055    -0.29419   -0.079604
-0.86639    -0.33567    -0.08181
-0.82776    -0.37316   -0.083955
-0.78492    -0.40619   -0.086201
-0.73857     -0.4349    -0.08946
-0.030348    0.047291    0.010723
-0.065276     0.09499    0.011579
-0.10527     0.13978   0.0092224
-0.14968     0.18018   0.0068217
-0.19816     0.21553    0.004518
-0.25017     0.24541   0.0022495
-0.3051     0.26948 -1.3246e-05
-0.36231     0.28749  -0.0022764
-0.42112     0.29921  -0.0045404
-0.48086     0.30451  -0.0068047
-0.54082     0.30334  -0.0090691
-0.6003      0.2957   -0.011334
-0.65861     0.28169   -0.013598
-0.71507     0.26146   -0.015862
-0.76902     0.23526   -0.018127
-0.81982     0.20339   -0.020391
-0.86689     0.16622   -0.022656
-0.90967     0.12419    -0.02492
-0.94766    0.077791   -0.027185
-0.98043     0.02756   -0.029449
-1.0076   -0.025914   -0.031713
-1.0288   -0.082006   -0.033978
-1.0438    -0.14006   -0.036242
-1.0525     -0.1994   -0.038507
-1.0548    -0.25933   -0.040771
-1.0505    -0.31915   -0.043036
-1.0398    -0.37817     -0.0453
-1.0228    -0.43568   -0.047564
-0.99975    -0.49103   -0.049829
-0.97082    -0.54356   -0.052093
-0.93639    -0.59266   -0.054358
-0.89685    -0.63776   -0.056623
-0.85269    -0.67833   -0.058886
-0.8044    -0.71389   -0.061144
-0.75256    -0.74401   -0.063388
-0.69774    -0.76831    -0.06561
-0.6405    -0.78642    -0.06786
-0.58136    -0.79817     -0.0704
-0.5205    -0.80412   -0.074129
-0.051651    0.019206   -0.015216
-0.10795    0.036307   -0.020698
-0.16688     0.04853   -0.023336
-0.22669    0.054302   -0.025643
-0.28668    0.053609   -0.027903
-0.34622     0.04643   -0.030162
-0.40464    0.032857   -0.032423
-0.46124    0.013055   -0.034686
-0.51538   -0.012741   -0.036951
-0.56642   -0.044231   -0.039215
-0.61377   -0.081045   -0.041479
-0.65686    -0.12275   -0.043744
-0.6952    -0.16887   -0.046008
-0.72834    -0.21886   -0.048273
-0.75589    -0.27212   -0.050537
-0.77753    -0.32806   -0.052802
-0.793      -0.386   -0.055066
-0.80214    -0.44527    -0.05733
-0.80482    -0.50518   -0.059595
-0.80102    -0.56503   -0.061859
-0.79078    -0.62413   -0.064124
-0.77422    -0.68177   -0.066388
-0.75154    -0.73728   -0.068653
-0.723    -0.79003   -0.070917
-0.68894    -0.83939   -0.073181
-0.64974    -0.88478   -0.075446
-0.60588    -0.92568    -0.07771
-0.55785     -0.9616   -0.079975
-0.50624    -0.99213   -0.082239
-0.45162     -1.0169   -0.084504
-0.39465     -1.0357   -0.086768
-0.336     -1.0481   -0.089032
-0.27634     -1.0542   -0.091294
-0.21637     -1.0538   -0.093551
-0.1568      -1.047     -0.0958
-0.09829     -1.0336   -0.098062
-0.041496     -1.0137    -0.10044
0.013028     -0.9875    -0.10327
0.064676    -0.95582    -0.10709
-0.052122  -0.0047715   -0.001909
-0.10196   -0.013583  -0.0044633
-0.15363   -0.027492  -0.0071049
-0.20383   -0.046802  -0.0094467
-0.2516    -0.07143   -0.011702
-0.2964    -0.10108   -0.013956
-0.33773     -0.1354   -0.016217
-0.37511    -0.17398   -0.018481
-0.4081    -0.21637   -0.020745
-0.43633    -0.26207    -0.02301
-0.45946    -0.31056   -0.025274
-0.47722    -0.36125   -0.027539
-0.48941    -0.41357   -0.029803
-0.49588     -0.4669   -0.032068
-0.49656    -0.52061   -0.034332
-0.49143    -0.57409   -0.036596
-0.48056    -0.62669   -0.038861
-0.46408    -0.67782   -0.041125
-0.44218    -0.72687    -0.04339
-0.41511    -0.77327   -0.045654
-0.38319    -0.81648   -0.047919
-0.34679    -0.85599   -0.050183
-0.30635    -0.89134   -0.052447
-0.26232    -0.92211   -0.054712
-0.21523    -0.94796   -0.056976
-0.16562    -0.96857   -0.059241
-0.11408    -0.98371   -0.061505
-0.061207     -0.9932    -0.06377
-0.0076184    -0.99692   -0.066034
0.04606    -0.99484   -0.068298
0.099199    -0.98698   -0.070563
0.15118    -0.97343   -0.072828
0.20139    -0.95435   -0.075094
0.24925    -0.92997   -0.077356
0.29419    -0.90055   -0.079604
0.33567    -0.86639    -0.08181
0.37316    -0.82776   -0.083955
0.40619    -0.78492   -0.086201
0.4349    -0.73857    -0.08946
-0.047291   -0.030348    0.010723
-0.09499   -0.065276    0.011579
-0.13978    -0.10527   0.0092224
-0.18018    -0.14968   0.0068217
-0.21553    -0.19816    0.004518
-0.24541    -0.25017   0.0022495
-0.26948     -0.3051 -1.3246e-05
-0.28749    -0.36231  -0.0022764
-0.29921    -0.42112  -0.0045404
-0.30451    -0.48086  -0.0068047
-0.30334    -0.54082  -0.0090691
-0.2957     -0.6003   -0.011334
-0.28169    -0.65861   -0.013598
-0.26146    -0.71507   -0.015862
-0.23526    -0.76902   -0.018127
-0.20339    -0.81982   -0.020391
-0.16622    -0.86689   -0.022656
-0.12419    -0.90967    -0.02492
-0.077791    -0.94766   -0.027185
-0.02756    -0.98043   -0.029449
0.025914     -1.0076   -0.031713
0.082006     -1.0288   -0.033978
0.14006     -1.0438   -0.036242
0.1994     -1.0525   -0.038507
0.25933     -1.0548   -0.040771
0.31915     -1.0505   -0.043036
0.37817     -1.0398     -0.0453
0.43568     -1.0228   -0.047564
0.49103    -0.99975   -0.049829
0.54356    -0.97082   -0.052093
0.59266    -0.93639   -0.054358
0.63776    -0.89685   -0.056623
0.67833    -0.85269   -0.058886
0.71389     -0.8044   -0.061144
0.74401    -0.75256   -0.063388
0.76831    -0.69774    -0.06561
0.78642     -0.6405    -0.06786
0.79817    -0.58136     -0.0704
0.80412     -0.5205   -0.074129
-0.019206   -0.051651   -0.015216
-0.036307    -0.10795   -0.020698
-0.04853    -0.16688   -0.023336
-0.054302    -0.22669   -0.025643
-0.053609    -0.28668   -0.027903
-0.04643    -0.34622   -0.030162
-0.032857    -0.40464   -0.032423
-0.013055    -0.46124   -0.034686
0.012741    -0.51538   -0.036951
0.044231    -0.56642   -0.039215
0.081045    -0.61377   -0.041479
0.12275    -0.65686   -0.043744
0.16887     -0.6952   -0.046008
0.21886    -0.72834   -0.048273
0.27212    -0.75589   -0.050537
0.32806    -0.77753   -0.052802
0.386      -0.793   -0.055066
0.44527    -0.80214    -0.05733
0.50518    -0.80482   -0.059595
0.56503    -0.80102   -0.061859
0.62413    -0.79078   -0.064124
0.68177    -0.77422   -0.066388
0.73728    -0.75154   -0.068653
0.79003      -0.723   -0.070917
0.83939    -0.68894   -0.073181
0.88478    -0.64974   -0.075446
0.92568    -0.60588    -0.07771
0.9616    -0.55785   -0.079975
0.99213    -0.50624   -0.082239
1.0169    -0.45162   -0.084504
1.0357    -0.39465   -0.086768
1.0481      -0.336   -0.089032
1.0542    -0.27634   -0.091294
1.0538    -0.21637   -0.093551
1.047     -0.1568     -0.0958
1.0336    -0.09829   -0.098062
1.0137   -0.041496    -0.10044
0.9875    0.013028    -0.10327
0.95582    0.064676    -0.10709
0.0047715   -0.052122   -0.001909
0.013583    -0.10196  -0.0044633
0.027492    -0.15363  -0.0071049
0.046802    -0.20383  -0.0094467
0.07143     -0.2516   -0.011702
0.10108     -0.2964   -0.013956
0.1354    -0.33773   -0.016217
0.17398    -0.37511   -0.018481
0.21637     -0.4081   -0.020745
0.26207    -0.43633    -0.02301
0.31056    -0.45946   -0.025274
0.36125    -0.47722   -0.027539
0.41357    -0.48941   -0.029803
0.4669    -0.49588   -0.032068
0.52061    -0.49656   -0.034332
0.57409    -0.49143   -0.036596
0.62669    -0.48056   -0.038861
0.67782    -0.46408   -0.041125
0.72687    -0.44218    -0.04339
0.77327    -0.41511   -0.045654
0.81648    -0.38319   -0.047919
0.85599    -0.34679   -0.050183
0.89134    -0.30635   -0.052447
0.92211    -0.26232   -0.054712
0.94796    -0.21523   -0.056976
0.96857    -0.16562   -0.059241
0.98371    -0.11408   -0.061505
0.9932   -0.061207    -0.06377
0.99692  -0.0076184   -0.066034
0.99484     0.04606   -0.068298
0.98698    0.099199   -0.070563
0.97343     0.15118   -0.072828
0.95435     0.20139   -0.075094
0.92997     0.24925   -0.077356
0.90055     0.29419   -0.079604
0.86639     0.33567    -0.08181
0.82776     0.37316   -0.083955
0.78492     0.40619   -0.086201
0.73857      0.4349    -0.08946
0.030348   -0.047291    0.010723
0.065276    -0.09499    0.011579
0.10527    -0.13978   0.0092224
0.14968    -0.18018   0.0068217
0.19816    -0.21553    0.004518
0.25017    -0.24541   0.0022495
0.3051    -0.26948 -1.3246e-05
0.36231    -0.28749  -0.0022764