# vtk DataFile Version 3.0
VTK Output
ASCII
DATASET UNSTRUCTURED_GRID

POINTS 1025 float
-0.5        -0.5           0
0.5        -0.5           0
0.5         0.5           0
-0.5         0.5           0
-0.5         -0.5           10
0.5         -0.5           10
0.5          0.5           10
-0.5          0.5           10
-0.25        -0.5           0
-1.3751e-12        -0.5           0
0.25        -0.5           0
0.5       -0.25           0
0.5 -1.3751e-12           0
0.5        0.25           0
0.25         0.5           0
1.3751e-12         0.5           0
-0.25         0.5           0
-0.5        0.25           0
-0.5  1.3751e-12           0
-0.5       -0.25           0
-0.25         -0.5           10
-1.37512e-12         -0.5           10
0.25         -0.5           10
0.5        -0.25           10
0.5 -1.37512e-12           10
0.5         0.25           10
0.25          0.5           10
1.37512e-12          0.5           10
-0.25          0.5           10
-0.5         0.25           10
-0.5  1.37512e-12           10
-0.5        -0.25           10
-0.5        -0.5        0.25
-0.5        -0.5         0.5
-0.5        -0.5        0.75
-0.5        -0.5           1
-0.5        -0.5        1.25
-0.5        -0.5         1.5
-0.5        -0.5        1.75
-0.5        -0.5           2
-0.5        -0.5        2.25
-0.5        -0.5         2.5
-0.5        -0.5        2.75
-0.5        -0.5           3
-0.5        -0.5        3.25
-0.5        -0.5         3.5
-0.5        -0.5        3.75
-0.5        -0.5           4
-0.5        -0.5        4.25
-0.5        -0.5         4.5
-0.5        -0.5        4.75
-0.5        -0.5           5
-0.5        -0.5        5.25
-0.5        -0.5         5.5
-0.5        -0.5        5.75
-0.5        -0.5           6
-0.5        -0.5        6.25
-0.5        -0.5         6.5
-0.5        -0.5        6.75
-0.5        -0.5           7
-0.5        -0.5        7.25
-0.5        -0.5         7.5
-0.5        -0.5        7.75
-0.5        -0.5           8
-0.5        -0.5        8.25
-0.5        -0.5         8.5
-0.5        -0.5        8.75
-0.5        -0.5           9
-0.5        -0.5        9.25
-0.5        -0.5         9.5
-0.5        -0.5        9.75
0.5        -0.5        0.25
0.5        -0.5         0.5
0.5        -0.5        0.75
0.5        -0.5           1
0.5        -0.5        1.25
0.5        -0.5         1.5
0.5        -0.5        1.75
0.5        -0.5           2
0.5        -0.5        2.25
0.5        -0.5         2.5
0.5        -0.5        2.75
0.5        -0.5           3
0.5        -0.5        3.25
0.5        -0.5         3.5
0.5        -0.5        3.75
0.5        -0.5           4
0.5        -0.5        4.25
0.5        -0.5         4.5
0.5        -0.5        4.75
0.5        -0.5           5
0.5        -0.5        5.25
0.5        -0.5         5.5
0.5        -0.5        5.75
0.5        -0.5           6
0.5        -0.5        6.25
0.5        -0.5         6.5
0.5        -0.5        6.75
0.5        -0.5           7
0.5        -0.5        7.25
0.5        -0.5         7.5
0.5        -0.5        7.75
0.5        -0.5           8
0.5        -0.5        8.25
0.5        -0.5         8.5
0.5        -0.5        8.75
0.5        -0.5           9
0.5        -0.5        9.25
0.5        -0.5         9.5
0.5        -0.5        9.75
0.5         0.5        0.25
0.5         0.5         0.5
0.5         0.5        0.75
0.5         0.5           1
0.5         0.5        1.25
0.5         0.5         1.5
0.5         0.5        1.75
0.5         0.5           2
0.5         0.5        2.25
0.5         0.5         2.5
0.5         0.5        2.75
0.5         0.5           3
0.5         0.5        3.25
0.5         0.5         3.5
0.5         0.5        3.75
0.5         0.5           4
0.5         0.5        4.25
0.5         0.5         4.5
0.5         0.5        4.75
0.5         0.5           5
0.5         0.5        5.25
0.5         0.5         5.5
0.5         0.5        5.75
0.5         0.5           6
0.5         0.5        6.25
0.5         0.5         6.5
0.5         0.5        6.75
0.5         0.5           7
0.5         0.5        7.25
0.5         0.5         7.5
0.5         0.5        7.75
0.5         0.5           8
0.5         0.5        8.25
0.5         0.5         8.5
0.5         0.5        8.75
0.5         0.5           9
0.5         0.5        9.25
0.5         0.5         9.5
0.5         0.5        9.75
-0.5         0.5        0.25
-0.5         0.5         0.5
-0.5         0.5        0.75
-0.5         0.5           1
-0.5         0.5        1.25
-0.5         0.5         1.5
-0.5         0.5        1.75
-0.5         0.5           2
-0.5         0.5        2.25
-0.5         0.5         2.5
-0.5         0.5        2.75
-0.5         0.5           3
-0.5         0.5        3.25
-0.5         0.5         3.5
-0.5         0.5        3.75
-0.5         0.5           4
-0.5         0.5        4.25
-0.5         0.5         4.5
-0.5         0.5        4.75
-0.5         0.5           5
-0.5         0.5        5.25
-0.5         0.5         5.5
-0.5         0.5        5.75
-0.5         0.5           6
-0.5         0.5        6.25
-0.5         0.5         6.5
-0.5         0.5        6.75
-0.5         0.5           7
-0.5         0.5        7.25
-0.5         0.5         7.5
-0.5         0.5        7.75
-0.5         0.5           8
-0.5         0.5        8.25
-0.5         0.5         8.5
-0.5         0.5        8.75
-0.5         0.5           9
-0.5         0.5        9.25
-0.5         0.5         9.5
-0.5         0.5        9.75
-0.25       -0.25           0
-0.25  6.8756e-13           0
-0.25        0.25           0
-6.8756e-13       -0.25           0
-3.7821e-24           0           0
6.8756e-13        0.25           0
0.25       -0.25           0
0.25 -6.8756e-13           0
0.25        0.25           0
-0.25        -0.5        0.25
-0.25        -0.5         0.5
-0.25        -0.5        0.75
-0.25        -0.5           1
-0.25        -0.5        1.25
-0.25        -0.5         1.5
-0.25        -0.5        1.75
-0.25        -0.5           2
-0.25        -0.5        2.25
-0.25        -0.5         2.5
-0.25        -0.5        2.75
-0.25        -0.5           3
-0.25        -0.5        3.25
-0.25        -0.5         3.5
-0.25        -0.5        3.75
-0.25        -0.5           4
-0.25        -0.5        4.25
-0.25        -0.5         4.5
-0.25        -0.5        4.75
-0.25        -0.5           5
-0.25        -0.5        5.25
-0.25        -0.5         5.5
-0.25        -0.5        5.75
-0.25        -0.5           6
-0.25        -0.5        6.25
-0.25        -0.5         6.5
-0.25        -0.5        6.75
-0.25        -0.5           7
-0.25        -0.5        7.25
-0.25        -0.5         7.5
-0.25        -0.5        7.75
-0.25        -0.5           8
-0.25        -0.5        8.25
-0.25        -0.5         8.5
-0.25        -0.5        8.75
-0.25        -0.5           9
-0.25        -0.5        9.25
-0.25        -0.5         9.5
-0.25        -0.5        9.75
-1.3751e-12        -0.5        0.25
-1.3751e-12        -0.5         0.5
-1.3751e-12        -0.5        0.75
-1.3751e-12        -0.5           1
-1.3751e-12        -0.5        1.25
-1.3751e-12        -0.5         1.5
-1.3751e-12        -0.5        1.75
-1.3751e-12        -0.5           2
-1.3751e-12        -0.5        2.25
-1.3751e-12        -0.5         2.5
-1.3751e-12        -0.5        2.75
-1.3751e-12        -0.5           3
-1.3751e-12        -0.5        3.25
-1.3751e-12        -0.5         3.5
-1.3751e-12        -0.5        3.75
-1.3751e-12        -0.5           4
-1.3751e-12        -0.5        4.25
-1.3751e-12        -0.5         4.5
-1.3751e-12        -0.5        4.75
-1.3751e-12        -0.5           5
-1.3751e-12        -0.5        5.25
-1.3751e-12        -0.5         5.5
-1.3751e-12        -0.5        5.75
-1.3751e-12        -0.5           6
-1.3751e-12        -0.5        6.25
-1.3751e-12        -0.5         6.5
-1.3751e-12        -0.5        6.75
-1.3751e-12        -0.5           7
-1.3751e-12        -0.5        7.25
-1.3751e-12        -0.5         7.5
-1.3751e-12        -0.5        7.75
-1.3751e-12        -0.5           8
-1.3751e-12        -0.5        8.25
-1.3751e-12        -0.5         8.5
-1.3751e-12        -0.5        8.75
-1.3751e-12        -0.5           9
-1.3751e-12        -0.5        9.25
-1.3751e-12        -0.5         9.5
-1.3751e-12        -0.5        9.75
0.25        -0.5        0.25
0.25        -0.5         0.5
0.25        -0.5        0.75
0.25        -0.5           1
0.25        -0.5        1.25
0.25        -0.5         1.5
0.25        -0.5        1.75
0.25        -0.5           2
0.25        -0.5        2.25
0.25        -0.5         2.5
0.25        -0.5        2.75
0.25        -0.5           3
0.25        -0.5        3.25
0.25        -0.5         3.5
0.25        -0.5        3.75
0.25        -0.5           4
0.25        -0.5        4.25
0.25        -0.5         4.5
0.25        -0.5        4.75
0.25        -0.5           5
0.25        -0.5        5.25
0.25        -0.5         5.5
0.25        -0.5        5.75
0.25        -0.5           6
0.25        -0.5        6.25
0.25        -0.5         6.5
0.25        -0.5        6.75
0.25        -0.5           7
0.25        -0.5        7.25
0.25        -0.5         7.5
0.25        -0.5        7.75
0.25        -0.5           8
0.25        -0.5        8.25
0.25        -0.5         8.5
0.25        -0.5        8.75
0.25        -0.5           9
0.25        -0.5        9.25
0.25        -0.5         9.5
0.25        -0.5        9.75
0.5       -0.25        0.25
0.5       -0.25         0.5
0.5       -0.25        0.75
0.5       -0.25           1
0.5       -0.25        1.25
0.5       -0.25         1.5
0.5       -0.25        1.75
0.5       -0.25           2
0.5       -0.25        2.25
0.5       -0.25         2.5
0.5       -0.25        2.75
0.5       -0.25           3
0.5       -0.25        3.25
0.5       -0.25         3.5
0.5       -0.25        3.75
0.5       -0.25           4
0.5       -0.25        4.25
[...]
POINT_DATA 1025
VECTORS displacement double
0  0  0
0  0  0
0  0  0
0  0  0
-0.20711         0.5    -0.16259
-0.5    -0.20711    -0.16259
0.20711        -0.5    -0.16259
0.5     0.20711    -0.16259
0  0  0
0  0  0
0  0  0
0  0  0
0  0  0
0  0  0
0  0  0
0  0  0
0  0  0
0  0  0
0  0  0
0  0  0
-0.28033     0.32322    -0.17658
-0.35355     0.14645    -0.15261
-0.42678    -0.03033    -0.13351
-0.32322    -0.28033    -0.17658
-0.14645    -0.35355    -0.15261
0.03033    -0.42678    -0.13351
0.28033    -0.32322    -0.17658
0.35355    -0.14645    -0.15261
0.42678     0.03033    -0.13351
0.32322     0.28033    -0.17658
0.14645     0.35355    -0.15261
-0.03033     0.42678    -0.13351
0.067276   -0.050114   -0.001412
0.14923    -0.10461  -0.0067594
0.23648    -0.14694   -0.011088
0.32796      -0.177   -0.014997
0.42251    -0.19425   -0.018712
0.51848    -0.19835   -0.022345
0.61408    -0.18922   -0.025965
0.70753    -0.16706   -0.029587
0.79705     -0.1323   -0.033214
0.88096   -0.085584   -0.036842
0.95768   -0.027802    -0.04047
1.0257    0.039955   -0.044099
1.0839     0.11641   -0.047727
1.131     0.20011   -0.051355
1.1661     0.28948   -0.054984
1.1887     0.38282   -0.058612
1.1983     0.47839    -0.06224
1.1946     0.57436   -0.065869
1.1779     0.66892   -0.069497
1.1483     0.76029   -0.073125
1.1065     0.84675   -0.076754
1.0532     0.92665   -0.080382
0.98944     0.99848    -0.08401
0.91645      1.0609   -0.087639
0.83559      1.1127   -0.091267
0.74839       1.153   -0.094895
0.65649      1.1808   -0.098524
0.56163      1.1959    -0.10215
0.46561      1.1978    -0.10578
0.37024      1.1864    -0.10941
0.27732      1.1622    -0.11304
0.18861      1.1254    -0.11667
0.10579      1.0768    -0.12029
0.030428      1.0173    -0.12388
-0.036031     0.94795    -0.12743
-0.09229     0.87005    -0.13099
-0.13725     0.78475    -0.13495
-0.1703     0.69326    -0.14049
-0.1922     0.59728    -0.14926
0.050114    0.067276   -0.001412
0.10461     0.14923  -0.0067594
0.14694     0.23648   -0.011088
0.177     0.32796   -0.014997
0.19425     0.42251   -0.018712
0.19835     0.51848   -0.022345
0.18922     0.61408   -0.025965
0.16706     0.70753   -0.029587
0.1323     0.79705   -0.033214
0.085584     0.88096   -0.036842
0.027802     0.95768    -0.04047
-0.039955      1.0257   -0.044099
-0.11641      1.0839   -0.047727
-0.20011       1.131   -0.051355
-0.28948      1.1661   -0.054984
-0.38282      1.1887   -0.058612
-0.47839      1.1983    -0.06224
-0.57436      1.1946   -0.065869
-0.66892      1.1779   -0.069497
-0.76029      1.1483   -0.073125
-0.84675      1.1065   -0.076754
-0.92665      1.0532   -0.080382
-0.99848     0.98944    -0.08401
-1.0609     0.91645   -0.087639
-1.1127     0.83559   -0.091267
-1.153     0.74839   -0.094895
-1.1808     0.65649   -0.098524
-1.1959     0.56163    -0.10215
-1.1978     0.46561    -0.10578
-1.1864     0.37024    -0.10941
-1.1622     0.27732    -0.11304
-1.1254     0.18861    -0.11667
-1.0768     0.10579    -0.12029
-1.0173    0.030428    -0.12388
-0.94795   -0.036031    -0.12743
-0.87005    -0.09229    -0.13099
-0.78475    -0.13725    -0.13495
-0.69326     -0.1703    -0.14049
-0.59728     -0.1922    -0.14926
-0.067276    0.050114   -0.001412
-0.14923     0.10461  -0.0067594
-0.23648     0.14694   -0.011088
-0.32796       0.177   -0.014997
-0.42251     0.19425   -0.018712
-0.51848     0.19835   -0.022345
-0.61408     0.18922   -0.025965
-0.70753     0.16706   -0.029587
-0.79705      0.1323   -0.033214
-0.88096    0.085584   -0.036842
-0.95768    0.027802    -0.04047
-1.0257   -0.039955   -0.044099
-1.0839    -0.11641   -0.047727
-1.131    -0.20011   -0.051355
-1.1661    -0.28948   -0.054984
-1.1887    -0.38282   -0.058612
-1.1983    -0.47839    -0.06224
-1.1946    -0.57436   -0.065869
-1.1779    -0.66892   -0.069497
-1.1483    -0.76029   -0.073125
-1.1065    -0.84675   -0.076754
-1.0532    -0.92665   -0.080382
-0.98944    -0.99848    -0.08401
-0.91645     -1.0609   -0.087639
-0.83559     -1.1127   -0.091267
-0.74839      -1.153   -0.094895
-0.65649     -1.1808   -0.098524
-0.56163     -1.1959    -0.10215
-0.46561     -1.1978    -0.10578
-0.37024     -1.1864    -0.10941
-0.27732     -1.1622    -0.11304
-0.18861     -1.1254    -0.11667
-0.10579     -1.0768    -0.12029
-0.030428     -1.0173    -0.12388
0.036031    -0.94795    -0.12743
0.09229    -0.87005    -0.13099
0.13725    -0.78475    -0.13495
0.1703    -0.69326    -0.14049
0.1922    -0.59728    -0.14926
-0.050114   -0.067276   -0.001412
-0.10461    -0.14923  -0.0067594
-0.14694    -0.23648   -0.011088
-0.177    -0.32796   -0.014997
-0.19425    -0.42251   -0.018712
-0.19835    -0.51848   -0.022345
-0.18922    -0.61408   -0.025965
-0.16706    -0.70753   -0.029587
-0.1323    -0.79705   -0.033214
-0.085584    -0.88096   -0.036842
-0.027802    -0.95768    -0.04047
0.039955     -1.0257   -0.044099
0.11641     -1.0839   -0.047727
0.20011      -1.131   -0.051355
0.28948     -1.1661   -0.054984
0.38282     -1.1887   -0.058612
0.47839     -1.1983    -0.06224
0.57436     -1.1946   -0.065869
0.66892     -1.1779   -0.069497
0.76029     -1.1483   -0.073125
0.84675     -1.1065   -0.076754
0.92665     -1.0532   -0.080382
0.99848    -0.98944    -0.08401
1.0609    -0.91645   -0.087639
1.1127    -0.83559   -0.091267
1.153    -0.74839   -0.094895
1.1808    -0.65649   -0.098524
1.1959    -0.56163    -0.10215
1.1978    -0.46561    -0.10578
1.1864    -0.37024    -0.10941
1.1622    -0.27732    -0.11304
1.1254    -0.18861    -0.11667
1.0768    -0.10579    -0.12029
1.0173   -0.030428    -0.12388
0.94795    0.036031    -0.12743
0.87005     0.09229    -0.13099
0.78475     0.13725    -0.13495
0.69326      0.1703    -0.14049
0.59728      0.1922    -0.14926
0  0  0
0  0  0
0  0  0
0  0  0
0  0  0
0  0  0
0  0  0
0  0  0
0  0  0
0.065548   -0.022278   -0.019939
0.13761    -0.04067   -0.027721
0.21318   -0.050923   -0.031983
0.28931   -0.050758    -0.03571
0.36455   -0.040203   -0.039333
0.43757    -0.01941   -0.042949
0.50703    0.011215    -0.04657
0.57164    0.051083   -0.050196
0.63017    0.099437   -0.053824
0.68151     0.15536   -0.057453
0.7247      0.2178   -0.061081
0.75892     0.28557   -0.064709
0.78352     0.35739   -0.068338
0.79803     0.43191   -0.071966
0.80219     0.50772   -0.075594
0.79592     0.58338   -0.079223
0.77932     0.65746   -0.082851
0.75273     0.72857   -0.086479
0.71663     0.79536   -0.090108
0.67171     0.85656   -0.093736
0.61882     0.91103   -0.097364
0.55897     0.95773    -0.10099
0.49327     0.99578    -0.10462
0.42298      1.0245    -0.10825
0.34941      1.0432    -0.11188
0.27397      1.0517    -0.11551
0.19808      1.0498    -0.11913
0.12316      1.0375    -0.12276
0.050645       1.015    -0.12639
-0.018103      0.9828    -0.13002
-0.081786     0.94147    -0.13365
-0.1392      0.8918    -0.13728
-0.18926     0.83473     -0.1409
-0.23101     0.77134    -0.14451
-0.26366     0.70281    -0.14811
-0.28647     0.63032    -0.15174
-0.29878     0.55504    -0.15559
-0.30014     0.47806    -0.16026
-0.29148     0.40127    -0.16657
0.065377   0.0075678  -0.0029652
0.12799    0.021682   -0.007084
0.19211    0.043891   -0.011347
0.25304    0.074523   -0.015112
0.3091     0.11323   -0.018728
0.35925     0.15927   -0.022337
0.40259     0.21176   -0.025958
0.43832     0.26969   -0.029585
0.46576     0.33198   -0.033213
0.4844     0.39745   -0.036842
0.49389     0.46486    -0.04047
0.49404     0.53292   -0.044099
0.48486     0.60037   -0.047727
0.46651     0.66592   -0.051355
0.43935     0.72833   -0.054984
0.40388     0.78643   -0.058612
0.36078     0.83912    -0.06224
0.31086     0.88539   -0.065869
0.25507     0.92438   -0.069497
0.19446     0.95536   -0.073125
0.13017     0.97772   -0.076754
0.063417     0.99106   -0.080382
-0.0045301     0.99512    -0.08401
-0.072392     0.98982   -0.087639
-0.13889     0.97526   -0.091267
-0.20275     0.95172   -0.094895
-0.26279     0.91965   -0.098524
-0.31786     0.87964    -0.10215
-0.36693     0.83246    -0.10578
-0.40905     0.77899    -0.10941
-0.44345     0.72026    -0.11304
-0.46947     0.65736    -0.11667
-0.48662     0.59149     -0.1203
-0.49458      0.5239    -0.12392
-0.49317     0.45586    -0.12752
-0.48233     0.38864    -0.13104
-0.462     0.32344    -0.13445
-0.43219     0.26135    -0.13808
-0.39405     0.20295    -0.14348
0.058577     0.04002    0.012858
0.11682     0.08693    0.013232
0.1698     0.14148   0.0094557
0.21514     0.20253   0.0056101
0.25165     0.26917   0.0019123
0.2786     0.34016  -0.0017247
0.29554     0.41417    -0.00535
0.30215      0.4898  -0.0089758
0.29833     0.56562   -0.012603
0.28415     0.64021   -0.016231
0.25988     0.71214    -0.01986
0.22596     0.78006   -0.023488
0.18305     0.84269   -0.027116
0.13196     0.89885   -0.030745
0.073652     0.94747   -0.034373
0.0092243     0.98763   -0.038001
-0.060102      1.0186    -0.04163
-0.13302      1.0397   -0.045258
-0.20814      1.0507   -0.048886
-0.28406      1.0512   -0.052515
-0.35934      1.0413   -0.056143
-0.43254      1.0212   -0.059771
-0.5023     0.99124     -0.0634
-0.56729       0.952   -0.067028
-0.62628     0.90421   -0.070656
-0.67816     0.84879   -0.074285
-0.72195     0.78677   -0.077913
-0.75682     0.71933   -0.081541
-0.78211     0.64775    -0.08517
-0.79735     0.57337   -0.088798
-0.80224     0.49761   -0.092427
-0.7967      0.4219   -0.096056
-0.78083     0.34766   -0.099683
-0.75492     0.27631     -0.1033
-0.71946     0.20921    -0.10689
-0.67503     0.14766    -0.11043
-0.62227    0.092863      -0.114
-0.56188    0.045619    -0.11806
-0.49463   0.0054717    -0.12422
0.022278    0.065548   -0.019939
0.04067     0.13761   -0.027721
0.050923     0.21318   -0.031983
0.050758     0.28931    -0.03571
0.040203     0.36455   -0.039333
0.01941     0.43757   -0.042949
-0.011215     0.50703    -0.04657
-0.051083     0.57164   -0.050196
-0.099437     0.63017   -0.053824
-0.15536     0.68151   -0.057453
-0.2178      0.7247   -0.061081
-0.28557     0.75892   -0.064709
-0.35739     0.78352   -0.068338
-0.43191     0.79803   -0.071966
-0.50772     0.80219   -0.075594
-0.58338     0.79592   -0.079223
-0.65746     0.77932   -0.082851
-0.72857     0.75273   -0.086479
-0.79536     0.71663   -0.090108
-0.85656     0.67171   -0.093736
-0.91103     0.61882   -0.097364
-0.95773     0.55897    -0.10099
-0.99578     0.49327    -0.10462
-1.0245     0.42298    -0.10825
-1.0432     0.34941    -0.11188
-1.0517     0.27397    -0.11551
-1.0498     0.19808    -0.11913
-1.0375     0.12316    -0.12276
-1.015    0.050645    -0.12639
-0.9828   -0.018103    -0.13002
-0.94147   -0.081786    -0.13365
-0.8918     -0.1392    -0.13728
-0.83473    -0.18926     -0.1409
-0.77134    -0.23101    -0.14451
-0.70281    -0.26366    -0.14811
-0.63032    -0.28647    -0.15174
-0.55504    -0.29878    -0.15559
-0.47806    -0.30014    -0.16026
-0.40127    -0.29148    -0.16657
-0.0075678    0.065377  -0.0029652
-0.021682     0.12799   -0.007084
-0.043891     0.19211   -0.011347
-0.074523     0.25304   -0.015112
-0.11323      0.3091   -0.018728
-0.15927     0.35925   -0.022337
-0.21176     0.40259   -0.025958
-0.26969     0.43832   -0.029585
-0.33198     0.46576   -0.033213
-0.39745      0.4844   -0.036842
-0.46486     0.49389    -0.04047
-0.53292     0.49404   -0.044099
-0.60037     0.48486   -0.047727
-0.66592     0.46651   -0.051355
-0.72833     0.43935   -0.054984
-0.78643     0.40388   -0.058612
-0.83912     0.36078    -0.06224
-0.88539     0.31086   -0.065869
-0.92438     0.25507   -0.069497
-0.95536     0.19446   -0.073125
-0.97772     0.13017   -0.076754
-0.99106    0.063417   -0.080382
-0.99512  -0.0045301    -0.08401
-0.98982   -0.072392   -0.087639
-0.97526    -0.13889   -0.091267
-0.95172    -0.20275   -0.094895
-0.91965    -0.26279   -0.098524
-0.87964    -0.31786    -0.10215
-0.83246    -0.36693    -0.10578
-0.77899    -0.40905    -0.10941
-0.72026    -0.44345    -0.11304
-0.65736    -0.46947    -0.11667
-0.59149    -0.48662     -0.1203
-0.5239    -0.49458    -0.12392
-0.45586    -0.49317    -0.12752
-0.38864    -0.48233    -0.13104
-0.32344      -0.462    -0.13445
-0.26135    -0.43219    -0.13808
-0.20295    -0.39405    -0.14348
-0.04002    0.058577    0.012858
-0.08693     0.11682    0.013232
-0.14148      0.1698   0.0094557
-0.20253     0.21514   0.0056101
-0.26917     0.25165   0.0019123
-0.34016      0.2786  -0.0017247
-0.41417     0.29554    -0.00535
-0.4898     0.30215  -0.0089758
-0.56562     0.29833   -0.012603
-0.64021     0.28415   -0.016231
-0.71214     0.25988    -0.01986
-0.78006     0.22596   -0.023488
-0.84269     0.18305   -0.027116
-0.89885     0.13196   -0.030745
-0.94747    0.073652   -0.034373
-0.98763   0.0092243   -0.038001
-1.0186   -0.060102    -0.04163
-1.0397    -0.13302   -0.045258
-1.0507    -0.20814   -0.048886
-1.0512    -0.28406   -0.052515
-1.0413    -0.35934   -0.056143
-1.0212    -0.43254   -0.059771
-0.99124     -0.5023     -0.0634
-0.952    -0.56729   -0.067028
-0.90421    -0.62628   -0.070656
-0.84879    -0.67816   -0.074285
-0.78677    -0.72195   -0.077913
-0.71933    -0.75682   -0.081541
-0.64775    -0.78211    -0.08517
-0.57337    -0.79735   -0.088798
-0.49761    -0.80224   -0.092427
-0.4219     -0.7967   -0.096056
-0.34766    -0.78083   -0.099683
-0.27631    -0.75492     -0.1033
-0.20921    -0.71946    -0.10689
-0.14766    -0.67503    -0.11043
-0.092863    -0.62227      -0.114
-0.045619    -0.56188    -0.11806
-0.0054717    -0.49463    -0.12422
-0.065548    0.022278   -0.019939
-0.13761     0.04067   -0.027721
-0.21318    0.050923   -0.031983
-0.28931    0.050758    -0.03571
-0.36455    0.040203   -0.039333
-0.43757     0.01941   -0.042949
-0.50703   -0.011215    -0.04657
-0.57164   -0.051083   -0.050196
-0.63017   -0.099437   -0.053824
-0.68151    -0.15536   -0.057453
-0.7247     -0.2178   -0.061081
-0.75892    -0.28557   -0.064709
-0.78352    -0.35739   -0.068338
-0.79803    -0.43191   -0.071966
-0.80219    -0.50772   -0.075594
-0.79592    -0.58338   -0.079223
-0.77932    -0.65746   -0.082851
-0.75273    -0.72857   -0.086479
-0.71663    -0.79536   -0.090108
-0.67171    -0.85656   -0.093736
-0.61882    -0.91103   -0.097364
-0.55897    -0.95773    -0.10099
-0.49327    -0.99578    -0.10462
-0.42298     -1.0245    -0.10825
-0.34941     -1.0432    -0.11188
-0.27397     -1.0517    -0.11551
-0.19808     -1.0498    -0.11913
-0.12316     -1.0375    -0.12276
-0.050645      -1.015    -0.12639
0.018103     -0.9828    -0.13002
0.081786    -0.94147    -0.13365
0.1392     -0.8918    -0.13728
0.18926    -0.83473     -0.1409
0.23101    -0.77134    -0.14451
0.26366    -0.70281    -0.14811
0.28647    -0.63032    -0.15174
0.29878    -0.55504    -0.15559
0.30014    -0.47806    -0.16026
0.29148    -0.40127    -0.16657
-0.065377  -0.0075678  -0.0029652
-0.12799   -0.021682   -0.007084
-0.19211   -0.043891   -0.011347
-0.25304   -0.074523   -0.015112
-0.3091    -0.11323   -0.018728
-0.35925    -0.15927   -0.022337
-0.40259    -0.21176   -0.025958
-0.43832    -0.26969   -0.029585
-0.46576    -0.33198   -0.033213
-0.4844    -0.39745   -0.036842
-0.49389    -0.46486    -0.04047
-0.49404    -0.53292   -0.044099
-0.48486    -0.60037   -0.047727
-0.46651    -0.66592   -0.051355
-0.43935    -0.72833   -0.054984
-0.40388    -0.78643   -0.058612
-0.36078    -0.83912    -0.06224
-0.31086    -0.88539   -0.065869
-0.25507    -0.92438   -0.069497
-0.19446    -0.95536   -0.073125
-0.13017    -0.97772   -0.076754
-0.063417    -0.99106   -0.080382
0.0045301    -0.99512    -0.08401
0.072392    -0.98982   -0.087639
0.13889    -0.97526   -0.091267
0.20275    -0.95172   -0.094895
0.26279    -0.91965   -0.098524
0.31786    -0.87964    -0.10215
0.36693    -0.83246    -0.10578
0.40905    -0.77899    -0.10941
0.44345    -0.72026    -0.11304
0.46947    -0.65736    -0.11667
0.48662    -0.59149     -0.1203
0.49458     -0.5239    -0.12392
0.49317    -0.45586    -0.12752
0.48233    -0.38864    -0.13104
0.462    -0.32344    -0.13445
0.43219    -0.26135    -0.13808
0.39405    -0.20295    -0.14348
-0.058577    -0.04002    0.012858
-0.11682    -0.08693    0.013232
-0.1698    -0.14148   0.0094557
-0.21514    -0.20253   0.0056101
-0.25165    -0.26917   0.0019123
-0.2786    -0.34016  -0.0017247
-0.29554    -0.41417    -0.00535
-0.30215     -0.4898  -0.0089758
-0.29833    -0.56562   -0.012603
-0.28415    -0.64021   -0.016231
-0.25988    -0.71214    -0.01986
-0.22596    -0.78006   -0.023488
-0.18305    -0.84269   -0.027116
-0.13196    -0.89885   -0.030745
-0.073652    -0.94747   -0.034373
-0.0092243    -0.98763   -0.038001
0.060102     -1.0186    -0.04163
0.13302     -1.0397   -0.045258
0.20814     -1.0507   -0.048886
0.28406     -1.0512   -0.052515
0.35934     -1.0413   -0.056143
0.43254     -1.0212   -0.059771
0.5023    -0.99124     -0.0634
0.56729      -0.952   -0.067028
0.62628    -0.90421   -0.070656
0.67816    -0.84879   -0.074285
0.72195    -0.78677   -0.077913
0.75682    -0.71933   -0.081541
0.78211    -0.64775    -0.08517
0.79735    -0.57337   -0.088798
0.80224    -0.49761   -0.092427
0.7967     -0.4219   -0.096056
0.78083    -0.34766   -0.099683
0.75492    -0.27631     -0.1033
0.71946    -0.20921    -0.10689
0.67503    -0.14766    -0.11043
0.62227   -0.092863      -0.114
0.56188   -0.045619    -0.11806
0.49463  -0.0054717    -0.12422
-0.022278   -0.065548   -0.019939
-0.04067    -0.13761   -0.027721
-0.050923    -0.21318   -0.031983
-0.050758    -0.28931    -0.03571
-0.040203    -0.36455   -0.039333
-0.01941    -0.43757   -0.042949
0.011215    -0.50703    -0.04657
0.051083    -0.57164   -0.050196
0.099437    -0.63017   -0.053824
0.15536    -0.68151   -0.057453
0.2178     -0.7247   -0.061081
0.28557    -0.75892   -0.064709
0.35739    -0.78352   -0.068338
0.43191    -0.79803   -0.071966
0.50772    -0.80219   -0.075594
0.58338    -0.79592   -0.079223
0.65746    -0.77932   -0.082851
0.72857    -0.75273   -0.086479
0.79536    -0.71663   -0.090108
0.85656    -0.67171   -0.093736
0.91103    -0.61882   -0.097364
0.95773    -0.55897    -0.10099
0.99578    -0.49327    -0.10462
1.0245    -0.42298    -0.10825
1.0432    -0.34941    -0.11188
1.0517    -0.27397    -0.11551
1.0498    -0.19808    -0.11913
1.0375    -0.12316    -0.12276
1.015   -0.050645    -0.12639
0.9828    0.018103    -0.13002
0.94147    0.081786    -0.13365
0.8918      0.1392    -0.13728
0.83473     0.18926     -0.1409
0.77134     0.23101    -0.14451
0.70281     0.26366    -0.14811
0.63032     0.28647    -0.15174
0.55504     0.29878    -0.15559
0.47806     0.30014    -0.16026
0.40127     0.29148    -0.16657
0.0075678   -0.065377  -0.0029652
0.021682    -0.12799   -0.007084
0.043891    -0.19211   -0.011347
0.074523    -0.25304   -0.015112
0.11323     -0.3091   -0.018728
0.15927    -0.35925   -0.022337
0.21176    -0.40259   -0.025958
0.26969    -0.43832   -0.029585
0.33198    -0.46576   -0.033213
0.39745     -0.4844   -0.036842
0.46486    -0.49389    -0.04047
0.53292    -0.49404   -0.044099
0.60037    -0.48486   -0.047727
0.66592    -0.46651   -0.051355
0.72833    -0.43935   -0.054984
0.78643    -0.40388   -0.058612
0.83912    -0.36078    -0.06224
0.88539    -0.31086   -0.065869
0.92438    -0.25507   -0.069497
0.95536    -0.19446   -0.073125
0.97772    -0.13017   -0.076754
0.99106   -0.063417   -0.080382
0.99512   0.0045301    -0.08401
0.98982    0.072392   -0.087639
0.97526     0.13889   -0.091267
0.95172     0.20275   -0.094895
0.91965     0.26279   -0.098524
0.87964     0.31786    -0.10215
0.83246     0.36693    -0.10578
0.77899     0.40905    -0.10941
0.72026     0.44345    -0.11304
0.65736     0.46947    -0.11667
0.59149     0.48662     -0.1203
0.5239     0.49458    -0.12392
0.45586     0.49317    -0.12752
0.38864     0.48233    -0.13104
0.32344       0.462    -0.13445
0.26135     0.43219    -0.13808
0.20295     0.39405    -0.14348
0.04002   -0.058577    0.012858
0.08693    -0.11682    0.013232
0.14148     -0.1698   0.0094557
0.20253    -0.21514   0.0056101
0.26917    -0.25165   0.0019123
0.34016     -0.2786  -0.0017247
0.41417    -0.29554    -0.00535