# vtk DataFile Version 3.0
VTK Output
ASCII
DATASET UNSTRUCTURED_GRID

POINTS 1025 float
-0.5        -0.5           0
0.5        -0.5           0
0.5         0.5           0
-0.5         0.5           0
-0.5         -0.5           10
0.5         -0.5           10
0.5          0.5           10
-0.5          0.5           10
-0.25        -0.5           0
-1.3751e-12        -0.5           0
0.25        -0.5           0
0.5       -0.25           0
0.5 -1.3751e-12           0
0.5        0.25           0
0.25         0.5           0
1.3751e-12         0.5           0
-0.25         0.5           0
-0.5        0.25           0
-0.5  1.3751e-12           0
-0.5       -0.25           0
-0.25         -0.5           10
-1.37512e-12         -0.5           10
0.25         -0.5           10
0.5        -0.25           10
0.5 -1.37512e-12           10
0.5         0.25           10
0.25          0.5           10
1.37512e-12          0.5           10
-0.25          0.5           10
-0.5         0.25           10
-0.5  1.37512e-12           10
-0.5        -0.25           10
-0.5        -0.5        0.25
-0.5        -0.5         0.5
-0.5        -0.5        0.75
-0.5        -0.5           1
-0.5        -0.5        1.25
-0.5        -0.5         1.5
-0.5        -0.5        1.75
-0.5        -0.5           2
-0.5        -0.5        2.25
-0.5        -0.5         2.5
-0.5        -0.5        2.75
-0.5        -0.5           3
-0.5        -0.5        3.25
-0.5        -0.5         3.5
-0.5        -0.5        3.75
-0.5        -0.5           4
-0.5        -0.5        4.25
-0.5        -0.5         4.5
-0.5        -0.5        4.75
-0.5        -0.5           5
-0.5        -0.5        5.25
-0.5        -0.5         5.5
-0.5        -0.5        5.75
-0.5        -0.5           6
-0.5        -0.5        6.25
-0.5        -0.5         6.5
-0.5        -0.5        6.75
-0.5        -0.5           7
-0.5        -0.5        7.25
-0.5        -0.5         7.5
-0.5        -0.5        7.75
-0.5        -0.5           8
-0.5        -0.5        8.25
-0.5        -0.5         8.5
-0.5        -0.5        8.75
-0.5        -0.5           9
-0.5        -0.5        9.25
-0.5        -0.5         9.5
-0.5        -0.5        9.75
0.5        -0.5        0.25
0.5        -0.5         0.5
0.5        -0.5        0.75
0.5        -0.5           1
0.5        -0.5        1.25
0.5        -0.5         1.5
0.5        -0.5        1.75
0.5        -0.5           2
0.5        -0.5        2.25
0.5        -0.5         2.5
0.5        -0.5        2.75
0.5        -0.5           3
0.5        -0.5        3.25
0.5        -0.5         3.5
0.5        -0.5        3.75
0.5        -0.5           4
0.5        -0.5        4.25
0.5        -0.5         4.5
0.5        -0.5        4.75
0.5        -0.5           5
0.5        -0.5        5.25
0.5        -0.5         5.5
0.5        -0.5        5.75
0.5        -0.5           6
0.5        -0.5        6.25
0.5        -0.5         6.5
0.5        -0.5        6.75
0.5        -0.5           7
0.5        -0.5        7.25
0.5        -0.5         7.5
0.5        -0.5        7.75
0.5        -0.5           8
0.5        -0.5        8.25
0.5        -0.5         8.5
0.5        -0.5        8.75
0.5        -0.5           9
0.5        -0.5        9.25
0.5        -0.5         9.5
0.5        -0.5        9.75
0.5         0.5        0.25
0.5         0.5         0.5
0.5         0.5        0.75
0.5         0.5           1
0.5         0.5        1.25
0.5         0.5         1.5
0.5         0.5        1.75
0.5         0.5           2
0.5         0.5        2.25
0.5         0.5         2.5
0.5         0.5        2.75
0.5         0.5           3
0.5         0.5        3.25
0.5         0.5         3.5
0.5         0.5        3.75
0.5         0.5           4
0.5         0.5        4.25
0.5         0.5         4.5
0.5         0.5        4.75
0.5         0.5           5
0.5         0.5        5.25
0.5         0.5         5.5
0.5         0.5        5.75
0.5         0.5           6
0.5         0.5        6.25
0.5         0.5         6.5
0.5         0.5        6.75
0.5         0.5           7
0.5         0.5        7.25
0.5         0.5         7.5
0.5         0.5        7.75
0.5         0.5           8
0.5         0.5        8.25
0.5         0.5         8.5
0.5         0.5        8.75
0.5         0.5           9
0.5         0.5        9.25
0.5         0.5         9.5
0.5         0.5        9.75
-0.5         0.5        0.25
-0.5         0.5         0.5
-0.5         0.5        0.75
-0.5         0.5           1
-0.5         0.5        1.25
-0.5         0.5         1.5
-0.5         0.5        1.75
-0.5         0.5           2
-0.5         0.5        2.25
-0.5         0.5         2.5
-0.5         0.5        2.75
-0.5         0.5           3
-0.5         0.5        3.25
-0.5         0.5         3.5
-0.5         0.5        3.75
-0.5         0.5           4
-0.5         0.5        4.25
-0.5         0.5         4.5
-0.5         0.5        4.75
-0.5         0.5           5
-0.5         0.5        5.25
-0.5         0.5         5.5
-0.5         0.5        5.75
-0.5         0.5           6
-0.5         0.5        6.25
-0.5         0.5         6.5
-0.5         0.5        6.75
-0.5         0.5           7
-0.5         0.5        7.25
-0.5         0.5         7.5
-0.5         0.5        7.75
-0.5         0.5           8
-0.5         0.5        8.25
-0.5         0.5         8.5
-0.5         0.5        8.75
-0.5         0.5           9
-0.5         0.5        9.25
-0.5         0.5         9.5
-0.5         0.5        9.75
-0.25       -0.25           0
-0.25  6.8756e-13           0
-0.25        0.25           0
-6.8756e-13       -0.25           0
-3.7821e-24           0           0
6.8756e-13        0.25           0
0.25       -0.25           0
0.25 -6.8756e-13           0
0.25        0.25           0
-0.25        -0.5        0.25
-0.25        -0.5         0.5
-0.25        -0.5        0.75
-0.25        -0.5           1
-0.25        -0.5        1.25
-0.25        -0.5         1.5
-0.25        -0.5        1.75
-0.25        -0.5           2
-0.25        -0.5        2.25
-0.25        -0.5         2.5
-0.25        -0.5        2.75
-0.25        -0.5           3
-0.25        -0.5        3.25
-0.25        -0.5         3.5
-0.25        -0.5        3.75
-0.25        -0.5           4
-0.25        -0.5        4.25
-0.25        -0.5         4.5
-0.25        -0.5        4.75
-0.25        -0.5           5
-0.25        -0.5        5.25
-0.25        -0.5         5.5
-0.25        -0.5        5.75
-0.25        -0.5           6
-0.25        -0.5        6.25
-0.25        -0.5         6.5
-0.25        -0.5        6.75
-0.25        -0.5           7
-0.25        -0.5        7.25
-0.25        -0.5         7.5
-0.25        -0.5        7.75
-0.25        -0.5           8
-0.25        -0.5        8.25
-0.25        -0.5         8.5
-0.25        -0.5        8.75
-0.25        -0.5           9
-0.25        -0.5        9.25
-0.25        -0.5         9.5
-0.25        -0.5        9.75
-1.3751e-12        -0.5        0.25
-1.3751e-12        -0.5         0.5
-1.3751e-12        -0.5        0.75
-1.3751e-12        -0.5           1
-1.3751e-12        -0.5        1.25
-1.3751e-12        -0.5         1.5
-1.3751e-12        -0.5        1.75
-1.3751e-12        -0.5           2
-1.3751e-12        -0.5        2.25
-1.3751e-12        -0.5         2.5
-1.3751e-12        -0.5        2.75
-1.3751e-12        -0.5           3
-1.3751e-12        -0.5        3.25
-1.3751e-12        -0.5         3.5
-1.3751e-12        -0.5        3.75
-1.3751e-12        -0.5           4
-1.3751e-12        -0.5        4.25
-1.3751e-12        -0.5         4.5
-1.3751e-12        -0.5        4.75
-1.3751e-12        -0.5           5
-1.3751e-12        -0.5        5.25
-1.3751e-12        -0.5         5.5
-1.3751e-12        -0.5        5.75
-1.3751e-12        -0.5           6
-1.3751e-12        -0.5        6.25
-1.3751e-12        -0.5         6.5
-1.3751e-12        -0.5        6.75
-1.3751e-12        -0.5           7
-1.3751e-12        -0.5        7.25
-1.3751e-12        -0.5         7.5
-1.3751e-12        -0.5        7.75
-1.3751e-12        -0.5           8
-1.3751e-12        -0.5        8.25
-1.3751e-12        -0.5         8.5
-1.3751e-12        -0.5        8.75
-1.3751e-12        -0.5           9
-1.3751e-12        -0.5        9.25
-1.3751e-12        -0.5         9.5
-1.3751e-12        -0.5        9.75
0.25        -0.5        0.25
0.25        -0.5         0.5
0.25        -0.5        0.75
0.25        -0.5           1
0.25        -0.5        1.25
0.25        -0.5         1.5
0.25        -0.5        1.75
0.25        -0.5           2
0.25        -0.5        2.25
0.25        -0.5         2.5
0.25        -0.5        2.75
0.25        -0.5           3
0.25        -0.5        3.25
0.25        -0.5         3.5
0.25        -0.5        3.75
0.25        -0.5           4
0.25        -0.5        4.25
0.25        -0.5         4.5
0.25        -0.5        4.75
0.25        -0.5           5
0.25        -0.5        5.25
0.25        -0.5         5.5
0.25        -0.5        5.75
0.25        -0.5           6
0.25        -0.5        6.25
0.25        -0.5         6.5
0.25        -0.5        6.75
0.25        -0.5           7
0.25        -0.5        7.25
0.25        -0.5         7.5
0.25        -0.5        7.75
0.25        -0.5           8
0.25        -0.5        8.25
0.25        -0.5         8.5
0.25        -0.5        8.75
0.25        -0.5           9
0.25        -0.5        9.25
0.25        -0.5         9.5
0.25        -0.5        9.75
0.5       -0.25        0.25
0.5       -0.25         0.5
0.5       -0.25        0.75
0.5       -0.25           1
0.5       -0.25        1.25
0.5       -0.25         1.5
0.5       -0.25        1.75
0.5       -0.25           2
0.5       -0.25        2.25
0.5       -0.25         2.5
0.5       -0.25        2.75
0.5       -0.25           3
0.5       -0.25        3.25
0.5       -0.25         3.5
0.5       -0.25        3.75
0.5       -0.25           4
0.5       -0.25        4.25
[...]
POINT_DATA 1025
VECTORS displacement double
0  0  0
0  0  0
0  0  0
0  0  0
-0.087938     0.10715    -0.77525
-0.10715   -0.087938    -0.77525
0.087938    -0.10715    -0.77525
0.10715    0.087938    -0.77525
0  0  0
0  0  0
0  0  0
0  0  0
0  0  0
0  0  0
0  0  0
0  0  0
0  0  0
0  0  0
0  0  0
0  0  0
-0.092741     0.05838    -0.77687
-0.097545   0.0096074    -0.71547
-0.10235   -0.039165    -0.67502
-0.05838   -0.092741    -0.77687
-0.0096074   -0.097545    -0.71547
0.039165    -0.10235    -0.67502
0.092741    -0.05838    -0.77687
0.097545  -0.0096074    -0.71547
0.10235    0.039165    -0.67502
0.05838    0.092741    -0.77687
0.0096074    0.097545    -0.71547
-0.039165     0.10235    -0.67502
0.15323   -0.077845  -0.0034656
0.34221    -0.14562   -0.024103
0.54731    -0.15899    -0.04588
0.74778    -0.11247   -0.065545
0.92344  -0.0083621   -0.082909
1.058     0.14345   -0.099112
1.1398     0.32855    -0.11507
1.1617     0.52967    -0.13111
1.1218     0.72808    -0.14726
1.0239     0.90524    -0.16346
0.87699      1.0446    -0.17967
0.69488       1.133    -0.19587
0.49456      1.1623    -0.21207
0.29475      1.1297    -0.22827
0.11412      1.0383    -0.24447
-0.030456     0.89659    -0.26066
-0.12547     0.71782    -0.27686
-0.16205     0.51871    -0.29306
-0.13678     0.31785    -0.30926
-0.052006       0.134    -0.32545
0.084338   -0.015645    -0.34165
0.25952    -0.11712    -0.35785
0.45717    -0.16093    -0.37405
0.65882    -0.14299    -0.39024
0.84563   -0.064983    -0.40644
1.0001    0.065813    -0.42264
1.1079     0.23717    -0.43883
1.1589     0.43309    -0.45502
1.1483     0.63528    -0.47122
1.0771     0.82483    -0.48745
0.95202     0.98406    -0.50373
0.78475      1.0981    -0.52003
0.59119      1.1564    -0.53613
0.38966      1.1538    -0.55155
0.19882      1.0902    -0.56588
0.036026     0.96831    -0.58026
-0.08176     0.79126    -0.60068
-0.13749     0.56953    -0.63938
-0.12602      0.3323    -0.70055
0.077845     0.15323  -0.0034656
0.14562     0.34221   -0.024103
0.15899     0.54731    -0.04588
0.11247     0.74778   -0.065545
0.0083621     0.92344   -0.082909
-0.14345       1.058   -0.099112
-0.32855      1.1398    -0.11507
-0.52967      1.1617    -0.13111
-0.72808      1.1218    -0.14726
-0.90524      1.0239    -0.16346
-1.0446     0.87699    -0.17967
-1.133     0.69488    -0.19587
-1.1623     0.49456    -0.21207
-1.1297     0.29475    -0.22827
-1.0383     0.11412    -0.24447
-0.89659   -0.030456    -0.26066
-0.71782    -0.12547    -0.27686
-0.51871    -0.16205    -0.29306
-0.31785    -0.13678    -0.30926
-0.134   -0.052006    -0.32545
0.015645    0.084338    -0.34165
0.11712     0.25952    -0.35785
0.16093     0.45717    -0.37405
0.14299     0.65882    -0.39024
0.064983     0.84563    -0.40644
-0.065813      1.0001    -0.42264
-0.23717      1.1079    -0.43883
-0.43309      1.1589    -0.45502
-0.63528      1.1483    -0.47122
-0.82483      1.0771    -0.48745
-0.98406     0.95202    -0.50373
-1.0981     0.78475    -0.52003
-1.1564     0.59119    -0.53613
-1.1538     0.38966    -0.55155
-1.0902     0.19882    -0.56588
-0.96831    0.036026    -0.58026
-0.79126    -0.08176    -0.60068
-0.56953    -0.13749    -0.63938
-0.3323    -0.12602    -0.70055
-0.15323    0.077845  -0.0034656
-0.34221     0.14562   -0.024103
-0.54731     0.15899    -0.04588
-0.74778     0.11247   -0.065545
-0.92344   0.0083621   -0.082909
-1.058    -0.14345   -0.099112
-1.1398    -0.32855    -0.11507
-1.1617    -0.52967    -0.13111
-1.1218    -0.72808    -0.14726
-1.0239    -0.90524    -0.16346
-0.87699     -1.0446    -0.17967
-0.69488      -1.133    -0.19587
-0.49456     -1.1623    -0.21207
-0.29475     -1.1297    -0.22827
-0.11412     -1.0383    -0.24447
0.030456    -0.89659    -0.26066
0.12547    -0.71782    -0.27686
0.16205    -0.51871    -0.29306
0.13678    -0.31785    -0.30926
0.052006      -0.134    -0.32545
-0.084338    0.015645    -0.34165
-0.25952     0.11712    -0.35785
-0.45717     0.16093    -0.37405
-0.65882     0.14299    -0.39024
-0.84563    0.064983    -0.40644
-1.0001   -0.065813    -0.42264
-1.1079    -0.23717    -0.43883
-1.1589    -0.43309    -0.45502
-1.1483    -0.63528    -0.47122
-1.0771    -0.82483    -0.48745
-0.95202    -0.98406    -0.50373
-0.78475     -1.0981    -0.52003
-0.59119     -1.1564    -0.53613
-0.38966     -1.1538    -0.55155
-0.19882     -1.0902    -0.56588
-0.036026    -0.96831    -0.58026
0.08176    -0.79126    -0.60068
0.13749    -0.56953    -0.63938
0.12602     -0.3323    -0.70055
-0.077845    -0.15323  -0.0034656
-0.14562    -0.34221   -0.024103
-0.15899    -0.54731    -0.04588
-0.11247    -0.74778   -0.065545
-0.0083621    -0.92344   -0.082909
0.14345      -1.058   -0.099112
0.32855     -1.1398    -0.11507
0.52967     -1.1617    -0.13111
0.72808     -1.1218    -0.14726
0.90524     -1.0239    -0.16346
1.0446    -0.87699    -0.17967
1.133    -0.69488    -0.19587
1.1623    -0.49456    -0.21207
1.1297    -0.29475    -0.22827
1.0383    -0.11412    -0.24447
0.89659    0.030456    -0.26066
0.71782     0.12547    -0.27686
0.51871     0.16205    -0.29306
0.31785     0.13678    -0.30926
0.134    0.052006    -0.32545
-0.015645   -0.084338    -0.34165
-0.11712    -0.25952    -0.35785
-0.16093    -0.45717    -0.37405
-0.14299    -0.65882    -0.39024
-0.064983    -0.84563    -0.40644
0.065813     -1.0001    -0.42264
0.23717     -1.1079    -0.43883
0.43309     -1.1589    -0.45502
0.63528     -1.1483    -0.47122
0.82483     -1.0771    -0.48745
0.98406    -0.95202    -0.50373
1.0981    -0.78475    -0.52003
1.1564    -0.59119    -0.53613
1.1538    -0.38966    -0.55155
1.0902    -0.19882    -0.56588
0.96831   -0.036026    -0.58026
0.79126     0.08176    -0.60068
0.56953     0.13749    -0.63938
0.3323     0.12602    -0.70055
0  0  0
0  0  0
0  0  0
0  0  0
0  0  0
0  0  0
0  0  0
0  0  0
0  0  0
0.1344   -0.024817   -0.047127
0.29021   -0.024547   -0.074307
0.4485    0.015828   -0.095359
0.58807     0.10047    -0.11317
0.69438     0.22207    -0.12945
0.75808     0.36941    -0.14538
0.77394     0.52885     -0.1614
0.74079     0.68564    -0.17754
0.66179     0.82516    -0.19373
0.54433     0.93434    -0.20994
0.39937       1.003    -0.22615
0.24046      1.0246    -0.24235
0.082437     0.99719    -0.25854
-0.059925     0.92335    -0.27474
-0.17333     0.80996    -0.29094
-0.24718      0.6676    -0.30714
-0.27458     0.50959    -0.32333
-0.25297     0.35067    -0.33953
-0.18437     0.20572    -0.35573
-0.075183    0.088252    -0.37192
0.064386   0.0092579    -0.38812
0.2213   -0.023886    -0.40432
0.38089   -0.008083    -0.42052
0.52825     0.05519    -0.43671
0.64962     0.16002    -0.45291
0.73365     0.29662    -0.46911
0.77249     0.45221     -0.4853
0.76252     0.61227     -0.5015
0.70464     0.76185     -0.5177
0.60426     0.88695    -0.53392
0.47076      0.9759    -0.55016
0.31669      1.0205    -0.56637
0.15655      1.0167     -0.5824
0.0052952     0.96528    -0.59804
-0.123     0.87069    -0.61339
-0.2152     0.73929     -0.6299
-0.25714     0.57801    -0.65232
-0.23474     0.39907    -0.68818
-0.16213      0.2312    -0.72713
0.12507    0.029822  -0.0082424
0.24721    0.092046   -0.026945
0.35938     0.18934   -0.048632
0.43849     0.31487   -0.066904
0.47501     0.45711   -0.083167
0.46614      0.6028   -0.098979
0.41345     0.73869    -0.11493
0.3221      0.8523    -0.13105
0.20066     0.93309    -0.14726
0.060464     0.97345    -0.16347
-0.085386      0.9696    -0.17968
-0.22326     0.92187    -0.19588
-0.34026     0.83472    -0.21207
-0.42548      0.7163    -0.22827
-0.47094     0.57767    -0.24447
-0.4724     0.43178    -0.26066
-0.42973     0.29227    -0.27686
-0.3469     0.17216    -0.29306
-0.23167     0.08269    -0.30926
-0.094787    0.032204    -0.32545
0.050949    0.025424    -0.34165
0.19193    0.062985    -0.35785
0.31497     0.14138    -0.37405
0.40859     0.25327    -0.39024
0.46403     0.38822    -0.40644
0.47612     0.53361    -0.42264
0.44373     0.67586    -0.43883
0.36987     0.80168    -0.45502
0.26146     0.89931    -0.47121
0.12859     0.95962    -0.48742
-0.016329     0.97698    -0.50366
-0.15973     0.94979    -0.51999
-0.28816     0.88081    -0.53634
-0.38968     0.77685    -0.55237
-0.45487     0.64779    -0.56723
-0.47669     0.50478    -0.57985
-0.44924     0.35894    -0.59123
-0.36528     0.21815    -0.61312
-0.22756     0.10284    -0.65907
0.10409    0.098323    0.021478
0.19563     0.22338    0.016379
0.25608      0.3736 -0.00048613
0.27152     0.53556   -0.018708
0.23709     0.69338   -0.035968
0.15619     0.83215   -0.052409
0.037024     0.93937   -0.068546
-0.10899      1.0055   -0.084657
-0.2682      1.0244    -0.10081
-0.42573     0.99437      -0.117
-0.56686     0.91818     -0.1332
-0.67838     0.80293     -0.1494
-0.74988     0.65937     -0.1656
-0.77467     0.50093     -0.1818
-0.75044      0.3424      -0.198
-0.67946     0.19859    -0.21419
-0.56835    0.082943    -0.23039
-0.42749   0.0062624    -0.24659
-0.27006   -0.024288    -0.26279
-0.11075  -0.0058546    -0.27898
0.035553    0.059841    -0.29518
0.15517     0.16666    -0.31138
0.23694     0.30463    -0.32758
0.27321     0.46084    -0.34377
0.2606     0.62072    -0.35997
0.20028     0.76932    -0.37617
0.097892     0.89275    -0.39236
-0.036998     0.97949    -0.40856
-0.1918      1.0214    -0.42475
-0.35205      1.0146    -0.44095
-0.5028     0.95973    -0.45719
-0.62996     0.86192    -0.47348
-0.72168     0.73052    -0.48978
-0.76946     0.57812    -0.50583
-0.76876     0.41908     -0.5211
-0.71816     0.26766    -0.53519
-0.61693     0.13663    -0.54985
-0.4654    0.038494    -0.57202
-0.27471    -0.01758    -0.61863
0.024817      0.1344   -0.047127
0.024547     0.29021   -0.074307
-0.015828      0.4485   -0.095359
-0.10047     0.58807    -0.11317
-0.22207     0.69438    -0.12945
-0.36941     0.75808    -0.14538
-0.52885     0.77394     -0.1614
-0.68564     0.74079    -0.17754
-0.82516     0.66179    -0.19373
-0.93434     0.54433    -0.20994
-1.003     0.39937    -0.22615
-1.0246     0.24046    -0.24235
-0.99719    0.082437    -0.25854
-0.92335   -0.059925    -0.27474
-0.80996    -0.17333    -0.29094
-0.6676    -0.24718    -0.30714
-0.50959    -0.27458    -0.32333
-0.35067    -0.25297    -0.33953
-0.20572    -0.18437    -0.35573
-0.088252   -0.075183    -0.37192
-0.0092579    0.064386    -0.38812
0.023886      0.2213    -0.40432
0.008083     0.38089    -0.42052
-0.05519     0.52825    -0.43671
-0.16002     0.64962    -0.45291
-0.29662     0.73365    -0.46911
-0.45221     0.77249     -0.4853
-0.61227     0.76252     -0.5015
-0.76185     0.70464     -0.5177
-0.88695     0.60426    -0.53392
-0.9759     0.47076    -0.55016
-1.0205     0.31669    -0.56637
-1.0167     0.15655     -0.5824
-0.96528   0.0052952    -0.59804
-0.87069      -0.123    -0.61339
-0.73929     -0.2152     -0.6299
-0.57801    -0.25714    -0.65232
-0.39907    -0.23474    -0.68818
-0.2312    -0.16213    -0.72713
-0.029822     0.12507  -0.0082424
-0.092046     0.24721   -0.026945
-0.18934     0.35938   -0.048632
-0.31487     0.43849   -0.066904
-0.45711     0.47501   -0.083167
-0.6028     0.46614   -0.098979
-0.73869     0.41345    -0.11493
-0.8523      0.3221    -0.13105
-0.93309     0.20066    -0.14726
-0.97345    0.060464    -0.16347
-0.9696   -0.085386    -0.17968
-0.92187    -0.22326    -0.19588
-0.83472    -0.34026    -0.21207
-0.7163    -0.42548    -0.22827
-0.57767    -0.47094    -0.24447
-0.43178     -0.4724    -0.26066
-0.29227    -0.42973    -0.27686
-0.17216     -0.3469    -0.29306
-0.08269    -0.23167    -0.30926
-0.032204   -0.094787    -0.32545
-0.025424    0.050949    -0.34165
-0.062985     0.19193    -0.35785
-0.14138     0.31497    -0.37405
-0.25327     0.40859    -0.39024
-0.38822     0.46403    -0.40644
-0.53361     0.47612    -0.42264
-0.67586     0.44373    -0.43883
-0.80168     0.36987    -0.45502
-0.89931     0.26146    -0.47121
-0.95962     0.12859    -0.48742
-0.97698   -0.016329    -0.50366
-0.94979    -0.15973    -0.51999
-0.88081    -0.28816    -0.53634
-0.77685    -0.38968    -0.55237
-0.64779    -0.45487    -0.56723
-0.50478    -0.47669    -0.57985
-0.35894    -0.44924    -0.59123
-0.21815    -0.36528    -0.61312
-0.10284    -0.22756    -0.65907
-0.098323     0.10409    0.021478
-0.22338     0.19563    0.016379
-0.3736     0.25608 -0.00048613
-0.53556     0.27152   -0.018708
-0.69338     0.23709   -0.035968
-0.83215     0.15619   -0.052409
-0.93937    0.037024   -0.068546
-1.0055    -0.10899   -0.084657
-1.0244     -0.2682    -0.10081
-0.99437    -0.42573      -0.117
-0.91818    -0.56686     -0.1332
-0.80293    -0.67838     -0.1494
-0.65937    -0.74988     -0.1656
-0.50093    -0.77467     -0.1818
-0.3424    -0.75044      -0.198
-0.19859    -0.67946    -0.21419
-0.082943    -0.56835    -0.23039
-0.0062624    -0.42749    -0.24659
0.024288    -0.27006    -0.26279
0.0058546    -0.11075    -0.27898
-0.059841    0.035553    -0.29518
-0.16666     0.15517    -0.31138
-0.30463     0.23694    -0.32758
-0.46084     0.27321    -0.34377
-0.62072      0.2606    -0.35997
-0.76932     0.20028    -0.37617
-0.89275    0.097892    -0.39236
-0.97949   -0.036998    -0.40856
-1.0214     -0.1918    -0.42475
-1.0146    -0.35205    -0.44095
-0.95973     -0.5028    -0.45719
-0.86192    -0.62996    -0.47348
-0.73052    -0.72168    -0.48978
-0.57812    -0.76946    -0.50583
-0.41908    -0.76876     -0.5211
-0.26766    -0.71816    -0.53519
-0.13663    -0.61693    -0.54985
-0.038494     -0.4654    -0.57202
0.01758    -0.27471    -0.61863
-0.1344    0.024817   -0.047127
-0.29021    0.024547   -0.074307
-0.4485   -0.015828   -0.095359
-0.58807    -0.10047    -0.11317
-0.69438    -0.22207    -0.12945
-0.75808    -0.36941    -0.14538
-0.77394    -0.52885     -0.1614
-0.74079    -0.68564    -0.17754
-0.66179    -0.82516    -0.19373
-0.54433    -0.93434    -0.20994
-0.39937      -1.003    -0.22615
-0.24046     -1.0246    -0.24235
-0.082437    -0.99719    -0.25854
0.059925    -0.92335    -0.27474
0.17333    -0.80996    -0.29094
0.24718     -0.6676    -0.30714
0.27458    -0.50959    -0.32333
0.25297    -0.35067    -0.33953
0.18437    -0.20572    -0.35573
0.075183   -0.088252    -0.37192
-0.064386  -0.0092579    -0.38812
-0.2213    0.023886    -0.40432
-0.38089    0.008083    -0.42052
-0.52825    -0.05519    -0.43671
-0.64962    -0.16002    -0.45291
-0.73365    -0.29662    -0.46911
-0.77249    -0.45221     -0.4853
-0.76252    -0.61227     -0.5015
-0.70464    -0.76185     -0.5177
-0.60426    -0.88695    -0.53392
-0.47076     -0.9759    -0.55016
-0.31669     -1.0205    -0.56637
-0.15655     -1.0167     -0.5824
-0.0052952    -0.96528    -0.59804
0.123    -0.87069    -0.61339
0.2152    -0.73929     -0.6299
0.25714    -0.57801    -0.65232
0.23474    -0.39907    -0.68818
0.16213     -0.2312    -0.72713
-0.12507   -0.029822  -0.0082424
-0.24721   -0.092046   -0.026945
-0.35938    -0.18934   -0.048632
-0.43849    -0.31487   -0.066904
-0.47501    -0.45711   -0.083167
-0.46614     -0.6028   -0.098979
-0.41345    -0.73869    -0.11493
-0.3221     -0.8523    -0.13105
-0.20066    -0.93309    -0.14726
-0.060464    -0.97345    -0.16347
0.085386     -0.9696    -0.17968
0.22326    -0.92187    -0.19588
0.34026    -0.83472    -0.21207
0.42548     -0.7163    -0.22827
0.47094    -0.57767    -0.24447
0.4724    -0.43178    -0.26066
0.42973    -0.29227    -0.27686
0.3469    -0.17216    -0.29306
0.23167    -0.08269    -0.30926
0.094787   -0.032204    -0.32545
-0.050949   -0.025424    -0.34165
-0.19193   -0.062985    -0.35785
-0.31497    -0.14138    -0.37405
-0.40859    -0.25327    -0.39024
-0.46403    -0.38822    -0.40644
-0.47612    -0.53361    -0.42264
-0.44373    -0.67586    -0.43883
-0.36987    -0.80168    -0.45502
-0.26146    -0.89931    -0.47121
-0.12859    -0.95962    -0.48742
0.016329    -0.97698    -0.50366
0.15973    -0.94979    -0.51999
0.28816    -0.88081    -0.53634
0.38968    -0.77685    -0.55237
0.45487    -0.64779    -0.56723
0.47669    -0.50478    -0.57985
0.44924    -0.35894    -0.59123
0.36528    -0.21815    -0.61312
0.22756    -0.10284    -0.65907
-0.10409   -0.098323    0.021478
-0.19563    -0.22338    0.016379
-0.25608     -0.3736 -0.00048613
-0.27152    -0.53556   -0.018708
-0.23709    -0.69338   -0.035968
-0.15619    -0.83215   -0.052409
-0.037024    -0.93937   -0.068546
0.10899     -1.0055   -0.084657
0.2682     -1.0244    -0.10081
0.42573    -0.99437      -0.117
0.56686    -0.91818     -0.1332
0.67838    -0.80293     -0.1494
0.74988    -0.65937     -0.1656
0.77467    -0.50093     -0.1818
0.75044     -0.3424      -0.198
0.67946    -0.19859    -0.21419
0.56835   -0.082943    -0.23039
0.42749  -0.0062624    -0.24659
0.27006    0.024288    -0.26279
0.11075   0.0058546    -0.27898
-0.035553   -0.059841    -0.29518
-0.15517    -0.16666    -0.31138
-0.23694    -0.30463    -0.32758
-0.27321    -0.46084    -0.34377
-0.2606    -0.62072    -0.35997
-0.20028    -0.76932    -0.37617
-0.097892    -0.89275    -0.39236
0.036998    -0.97949    -0.40856
0.1918     -1.0214    -0.42475
0.35205     -1.0146    -0.44095
0.5028    -0.95973    -0.45719
0.62996    -0.86192    -0.47348
0.72168    -0.73052    -0.48978
0.76946    -0.57812    -0.50583
0.76876    -0.41908     -0.5211
0.71816    -0.26766    -0.53519
0.61693    -0.13663    -0.54985
0.4654   -0.038494    -0.57202
0.27471     0.01758    -0.61863
-0.024817     -0.1344   -0.047127
-0.024547    -0.29021   -0.074307
0.015828     -0.4485   -0.095359
0.10047    -0.58807    -0.11317
0.22207    -0.69438    -0.12945
0.36941    -0.75808    -0.14538
0.52885    -0.77394     -0.1614
0.68564    -0.74079    -0.17754
0.82516    -0.66179    -0.19373
0.93434    -0.54433    -0.20994
1.003    -0.39937    -0.22615
1.0246    -0.24046    -0.24235
0.99719   -0.082437    -0.25854
0.92335    0.059925    -0.27474
0.80996     0.17333    -0.29094
0.6676     0.24718    -0.30714
0.50959     0.27458    -0.32333
0.35067     0.25297    -0.33953
0.20572     0.18437    -0.35573
0.088252    0.075183    -0.37192
0.0092579   -0.064386    -0.38812
-0.023886     -0.2213    -0.40432
-0.008083    -0.38089    -0.42052
0.05519    -0.52825    -0.43671
0.16002    -0.64962    -0.45291
0.29662    -0.73365    -0.46911
0.45221    -0.77249     -0.4853
0.61227    -0.76252     -0.5015
0.76185    -0.70464     -0.5177
0.88695    -0.60426    -0.53392
0.9759    -0.47076    -0.55016
1.0205    -0.31669    -0.56637
1.0167    -0.15655     -0.5824
0.96528  -0.0052952    -0.59804
0.87069       0.123    -0.61339
0.73929      0.2152     -0.6299
0.57801     0.25714    -0.65232
0.39907     0.23474    -0.68818
0.2312     0.16213    -0.72713
0.029822    -0.12507  -0.0082424
0.092046    -0.24721   -0.026945
0.18934    -0.35938   -0.048632
0.31487    -0.43849   -0.066904
0.45711    -0.47501   -0.083167
0.6028    -0.46614   -0.098979
0.73869    -0.41345    -0.11493
0.8523     -0.3221    -0.13105
0.93309    -0.20066    -0.14726
0.97345   -0.060464    -0.16347
0.9696    0.085386    -0.17968
0.92187     0.22326    -0.19588
0.83472     0.34026    -0.21207
0.7163     0.42548    -0.22827
0.57767     0.47094    -0.24447
0.43178      0.4724    -0.26066
0.29227     0.42973    -0.27686
0.17216      0.3469    -0.29306
0.08269     0.23167    -0.30926
0.032204    0.094787    -0.32545
0.025424   -0.050949    -0.34165
0.062985    -0.19193    -0.35785
0.14138    -0.31497    -0.37405
0.25327    -0.40859    -0.39024
0.38822    -0.46403    -0.40644
0.53361    -0.47612    -0.42264
0.67586    -0.44373    -0.43883
0.80168    -0.36987    -0.45502
0.89931    -0.26146    -0.47121
0.95962    -0.12859    -0.48742
0.97698    0.016329    -0.50366
0.94979     0.15973    -0.51999
0.88081     0.28816    -0.53634
0.77685     0.38968    -0.55237
0.64779     0.45487    -0.56723
0.50478     0.47669    -0.57985
0.35894     0.44924    -0.59123
0.21815     0.36528    -0.61312
0.10284     0.22756    -0.65907
0.098323    -0.10409    0.021478
0.22338    -0.19563    0.016379
0.3736    -0.25608 -0.00048613
0.53556    -0.27152   -0.018708
0.69338    -0.23709   -0.035968
0.83215    -0.15619   -0.052409