# vtk DataFile Version 3.0
VTK Output
ASCII
DATASET UNSTRUCTURED_GRID

POINTS 1025 float
-0.5        -0.5           0
0.5        -0.5           0
0.5         0.5           0
-0.5         0.5           0
-0.5         -0.5           10
0.5         -0.5           10
0.5          0.5           10
-0.5          0.5           10
-0.25        -0.5           0
-1.3751e-12        -0.5           0
0.25        -0.5           0
0.5       -0.25           0
0.5 -1.3751e-12           0
0.5        0.25           0
0.25         0.5           0
1.3751e-12         0.5           0
-0.25         0.5           0
-0.5        0.25           0
-0.5  1.3751e-12           0
-0.5       -0.25           0
-0.25         -0.5           10
-1.37512e-12         -0.5           10
0.25         -0.5           10
0.5        -0.25           10
0.5 -1.37512e-12           10
0.5         0.25           10
0.25          0.5           10
1.37512e-12          0.5           10
-0.25          0.5           10
-0.5         0.25           10
-0.5  1.37512e-12           10
-0.5        -0.25           10
-0.5        -0.5        0.25
-0.5        -0.5         0.5
-0.5        -0.5        0.75
-0.5        -0.5           1
-0.5        -0.5        1.25
-0.5        -0.5         1.5
-0.5        -0.5        1.75
-0.5        -0.5           2
-0.5        -0.5        2.25
-0.5        -0.5         2.5
-0.5        -0.5        2.75
-0.5        -0.5           3
-0.5        -0.5        3.25
-0.5        -0.5         3.5
-0.5        -0.5        3.75
-0.5        -0.5           4
-0.5        -0.5        4.25
-0.5        -0.5         4.5
-0.5        -0.5        4.75
-0.5        -0.5           5
-0.5        -0.5        5.25
-0.5        -0.5         5.5
-0.5        -0.5        5.75
-0.5        -0.5           6
-0.5        -0.5        6.25
-0.5        -0.5         6.5
-0.5        -0.5        6.75
-0.5        -0.5           7
-0.5        -0.5        7.25
-0.5        -0.5         7.5
-0.5        -0.5        7.75
-0.5        -0.5           8
-0.5        -0.5        8.25
-0.5        -0.5         8.5
-0.5        -0.5        8.75
-0.5        -0.5           9
-0.5        -0.5        9.25
-0.5        -0.5         9.5
-0.5        -0.5        9.75
0.5        -0.5        0.25
0.5        -0.5         0.5
0.5        -0.5        0.75
0.5        -0.5           1
0.5        -0.5        1.25
0.5        -0.5         1.5
0.5        -0.5        1.75
0.5        -0.5           2
0.5        -0.5        2.25
0.5        -0.5         2.5
0.5        -0.5        2.75
0.5        -0.5           3
0.5        -0.5        3.25
0.5        -0.5         3.5
0.5        -0.5        3.75
0.5        -0.5           4
0.5        -0.5        4.25
0.5        -0.5         4.5
0.5        -0.5        4.75
0.5        -0.5           5
0.5        -0.5        5.25
0.5        -0.5         5.5
0.5        -0.5        5.75
0.5        -0.5           6
0.5        -0.5        6.25
0.5        -0.5         6.5
0.5        -0.5        6.75
0.5        -0.5           7
0.5        -0.5        7.25
0.5        -0.5         7.5
0.5        -0.5        7.75
0.5        -0.5           8
0.5        -0.5        8.25
0.5        -0.5         8.5
0.5        -0.5        8.75
0.5        -0.5           9
0.5        -0.5        9.25
0.5        -0.5         9.5
0.5        -0.5        9.75
0.5         0.5        0.25
0.5         0.5         0.5
0.5         0.5        0.75
0.5         0.5           1
0.5         0.5        1.25
0.5         0.5         1.5
0.5         0.5        1.75
0.5         0.5           2
0.5         0.5        2.25
0.5         0.5         2.5
0.5         0.5        2.75
0.5         0.5           3
0.5         0.5        3.25
0.5         0.5         3.5
0.5         0.5        3.75
0.5         0.5           4
0.5         0.5        4.25
0.5         0.5         4.5
0.5         0.5        4.75
0.5         0.5           5
0.5         0.5        5.25
0.5         0.5         5.5
0.5         0.5        5.75
0.5         0.5           6
0.5         0.5        6.25
0.5         0.5         6.5
0.5         0.5        6.75
0.5         0.5           7
0.5         0.5        7.25
0.5         0.5         7.5
0.5         0.5        7.75
0.5         0.5           8
0.5         0.5        8.25
0.5         0.5         8.5
0.5         0.5        8.75
0.5         0.5           9
0.5         0.5        9.25
0.5         0.5         9.5
0.5         0.5        9.75
-0.5         0.5        0.25
-0.5         0.5         0.5
-0.5         0.5        0.75
-0.5         0.5           1
-0.5         0.5        1.25
-0.5         0.5         1.5
-0.5         0.5        1.75
-0.5         0.5           2
-0.5         0.5        2.25
-0.5         0.5         2.5
-0.5         0.5        2.75
-0.5         0.5           3
-0.5         0.5        3.25
-0.5         0.5         3.5
-0.5         0.5        3.75
-0.5         0.5           4
-0.5         0.5        4.25
-0.5         0.5         4.5
-0.5         0.5        4.75
-0.5         0.5           5
-0.5         0.5        5.25
-0.5         0.5         5.5
-0.5         0.5        5.75
-0.5         0.5           6
-0.5         0.5        6.25
-0.5         0.5         6.5
-0.5         0.5        6.75
-0.5         0.5           7
-0.5         0.5        7.25
-0.5         0.5         7.5
-0.5         0.5        7.75
-0.5         0.5           8
-0.5         0.5        8.25
-0.5         0.5         8.5
-0.5         0.5        8.75
-0.5         0.5           9
-0.5         0.5        9.25
-0.5         0.5         9.5
-0.5         0.5        9.75
-0.25       -0.25           0
-0.25  6.8756e-13           0
-0.25        0.25           0
-6.8756e-13       -0.25           0
-3.7821e-24           0           0
6.8756e-13        0.25           0
0.25       -0.25           0
0.25 -6.8756e-13           0
0.25        0.25           0
-0.25        -0.5        0.25
-0.25        -0.5         0.5
-0.25        -0.5        0.75
-0.25        -0.5           1
-0.25        -0.5        1.25
-0.25        -0.5         1.5
-0.25        -0.5        1.75
-0.25        -0.5           2
-0.25        -0.5        2.25
-0.25        -0.5         2.5
-0.25        -0.5        2.75
-0.25        -0.5           3
-0.25        -0.5        3.25
-0.25        -0.5         3.5
-0.25        -0.5        3.75
-0.25        -0.5           4
-0.25        -0.5        4.25
-0.25        -0.5         4.5
-0.25        -0.5        4.75
-0.25        -0.5           5
-0.25        -0.5        5.25
-0.25        -0.5         5.5
-0.25        -0.5        5.75
-0.25        -0.5           6
-0.25        -0.5        6.25
-0.25        -0.5         6.5
-0.25        -0.5        6.75
-0.25        -0.5           7
-0.25        -0.5        7.25
-0.25        -0.5         7.5
-0.25        -0.5        7.75
-0.25        -0.5           8
-0.25        -0.5        8.25
-0.25        -0.5         8.5
-0.25        -0.5        8.75
-0.25        -0.5           9
-0.25        -0.5        9.25
-0.25        -0.5         9.5
-0.25        -0.5        9.75
-1.3751e-12        -0.5        0.25
-1.3751e-12        -0.5         0.5
-1.3751e-12        -0.5        0.75
-1.3751e-12        -0.5           1
-1.3751e-12        -0.5        1.25
-1.3751e-12        -0.5         1.5
-1.3751e-12        -0.5        1.75
-1.3751e-12        -0.5           2
-1.3751e-12        -0.5        2.25
-1.3751e-12        -0.5         2.5
-1.3751e-12        -0.5        2.75
-1.3751e-12        -0.5           3
-1.3751e-12        -0.5        3.25
-1.3751e-12        -0.5         3.5
-1.3751e-12        -0.5        3.75
-1.3751e-12        -0.5           4
-1.3751e-12        -0.5        4.25
-1.3751e-12        -0.5         4.5
-1.3751e-12        -0.5        4.75
-1.3751e-12        -0.5           5
-1.3751e-12        -0.5        5.25
-1.3751e-12        -0.5         5.5
-1.3751e-12        -0.5        5.75
-1.3751e-12        -0.5           6
-1.3751e-12        -0.5        6.25
-1.3751e-12        -0.5         6.5
-1.3751e-12        -0.5        6.75
-1.3751e-12        -0.5           7
-1.3751e-12        -0.5        7.25
-1.3751e-12        -0.5         7.5
-1.3751e-12        -0.5        7.75
-1.3751e-12        -0.5           8
-1.3751e-12        -0.5        8.25
-1.3751e-12        -0.5         8.5
-1.3751e-12        -0.5        8.75
-1.3751e-12        -0.5           9
-1.3751e-12        -0.5        9.25
-1.3751e-12        -0.5         9.5
-1.3751e-12        -0.5        9.75
0.25        -0.5        0.25
0.25        -0.5         0.5
0.25        -0.5        0.75
0.25        -0.5           1
0.25        -0.5        1.25
0.25        -0.5         1.5
0.25        -0.5        1.75
0.25        -0.5           2
0.25        -0.5        2.25
0.25        -0.5         2.5
0.25        -0.5        2.75
0.25        -0.5           3
0.25        -0.5        3.25
0.25        -0.5         3.5
0.25        -0.5        3.75
0.25        -0.5           4
0.25        -0.5        4.25
0.25        -0.5         4.5
0.25        -0.5        4.75
0.25        -0.5           5
0.25        -0.5        5.25
0.25        -0.5         5.5
0.25        -0.5        5.75
0.25        -0.5           6
0.25        -0.5        6.25
0.25        -0.5         6.5
0.25        -0.5        6.75
0.25        -0.5           7
0.25        -0.5        7.25
0.25        -0.5         7.5
0.25        -0.5        7.75
0.25        -0.5           8
0.25        -0.5        8.25
0.25        -0.5         8.5
0.25        -0.5        8.75
0.25        -0.5           9
0.25        -0.5        9.25
0.25        -0.5         9.5
0.25        -0.5        9.75
0.5       -0.25        0.25
0.5       -0.25         0.5
0.5       -0.25        0.75
0.5       -0.25           1
0.5       -0.25        1.25
0.5       -0.25         1.5
0.5       -0.25        1.75
0.5       -0.25           2
0.5       -0.25        2.25
0.5       -0.25         2.5
0.5       -0.25        2.75
0.5       -0.25           3
0.5       -0.25        3.25
0.5       -0.25         3.5
0.5       -0.25        3.75
0.5       -0.25           4
0.5       -0.25        4.25
[...]
POINT_DATA 1025
VECTORS displacement double
0  0  0
0  0  0
0  0  0
0  0  0
1.1533      0.2294   -0.021048
-0.2294      1.1533   -0.021048
-1.1533     -0.2294   -0.021048
0.2294     -1.1533   -0.021048
0  0  0
0  0  0
0  0  0
0  0  0
0  0  0
0  0  0
0  0  0
0  0  0
0  0  0
0  0  0
0  0  0
0  0  0
0.80761     0.46037   -0.027551
0.46194     0.69134   -0.019826
0.11627     0.92231   -0.012715
-0.46037     0.80761   -0.027551
-0.69134     0.46194   -0.019826
-0.92231     0.11627   -0.012715
-0.80761    -0.46037   -0.027551
-0.46194    -0.69134   -0.019826
-0.11627    -0.92231   -0.012715
0.46037    -0.80761   -0.027551
0.69134    -0.46194   -0.019826
0.92231    -0.11627   -0.012715
0.022659    -0.02041  -0.0001983
0.049772    -0.04392 -0.00091939
0.077318   -0.065527  -0.0014677
0.10565   -0.085629  -0.0019693
0.13491    -0.10431  -0.0024533
0.16506    -0.12153  -0.0029287
0.19602    -0.13724  -0.0034024
0.22771    -0.15141  -0.0038762
0.26006    -0.16401  -0.0043504
0.29299      -0.175  -0.0048247
0.32642    -0.18436  -0.0052991
0.36027    -0.19207  -0.0057734
0.39446     -0.1981  -0.0062478
0.42891    -0.20245  -0.0067221
0.46352    -0.20509  -0.0071964
0.49823    -0.20603  -0.0076708
0.53294    -0.20527  -0.0081451
0.56757    -0.20279  -0.0086195
0.60203    -0.19862  -0.0090938
0.63625    -0.19276  -0.0095681
0.67014    -0.18523   -0.010042
0.70362    -0.17604   -0.010517
0.7366    -0.16521   -0.010991
0.76902    -0.15277   -0.011466
0.80078    -0.13876    -0.01194
0.83182     -0.1232   -0.012414
0.86205    -0.10614   -0.012889
0.89141   -0.087607   -0.013363
0.91982   -0.067656   -0.013837
0.94722   -0.046332   -0.014312
0.97353   -0.023688   -0.014786
0.99871  0.00022282    -0.01526
1.0227    0.025342   -0.015734
1.0454    0.051609   -0.016205
1.0667    0.078962   -0.016673
1.0867     0.10734   -0.017143
1.1053      0.1367   -0.017658
1.1224     0.16696   -0.018349
1.1383     0.19798   -0.019413
0.02041    0.022659  -0.0001983
0.04392    0.049772 -0.00091939
0.065527    0.077318  -0.0014677
0.085629     0.10565  -0.0019693
0.10431     0.13491  -0.0024533
0.12153     0.16506  -0.0029287
0.13724     0.19602  -0.0034024
0.15141     0.22771  -0.0038762
0.16401     0.26006  -0.0043504
0.175     0.29299  -0.0048247
0.18436     0.32642  -0.0052991
0.19207     0.36027  -0.0057734
0.1981     0.39446  -0.0062478
0.20245     0.42891  -0.0067221
0.20509     0.46352  -0.0071964
0.20603     0.49823  -0.0076708
0.20527     0.53294  -0.0081451
0.20279     0.56757  -0.0086195
0.19862     0.60203  -0.0090938
0.19276     0.63625  -0.0095681
0.18523     0.67014   -0.010042
0.17604     0.70362   -0.010517
0.16521      0.7366   -0.010991
0.15277     0.76902   -0.011466
0.13876     0.80078    -0.01194
0.1232     0.83182   -0.012414
0.10614     0.86205   -0.012889
0.087607     0.89141   -0.013363
0.067656     0.91982   -0.013837
0.046332     0.94722   -0.014312
0.023688     0.97353   -0.014786
-0.00022282     0.99871    -0.01526
-0.025342      1.0227   -0.015734
-0.051609      1.0454   -0.016205
-0.078962      1.0667   -0.016673
-0.10734      1.0867   -0.017143
-0.1367      1.1053   -0.017658
-0.16696      1.1224   -0.018349
-0.19798      1.1383   -0.019413
-0.022659     0.02041  -0.0001983
-0.049772     0.04392 -0.00091939
-0.077318    0.065527  -0.0014677
-0.10565    0.085629  -0.0019693
-0.13491     0.10431  -0.0024533
-0.16506     0.12153  -0.0029287
-0.19602     0.13724  -0.0034024
-0.22771     0.15141  -0.0038762
-0.26006     0.16401  -0.0043504
-0.29299       0.175  -0.0048247
-0.32642     0.18436  -0.0052991
-0.36027     0.19207  -0.0057734
-0.39446      0.1981  -0.0062478
-0.42891     0.20245  -0.0067221
-0.46352     0.20509  -0.0071964
-0.49823     0.20603  -0.0076708
-0.53294     0.20527  -0.0081451
-0.56757     0.20279  -0.0086195
-0.60203     0.19862  -0.0090938
-0.63625     0.19276  -0.0095681
-0.67014     0.18523   -0.010042
-0.70362     0.17604   -0.010517
-0.7366     0.16521   -0.010991
-0.76902     0.15277   -0.011466
-0.80078     0.13876    -0.01194
-0.83182      0.1232   -0.012414
-0.86205     0.10614   -0.012889
-0.89141    0.087607   -0.013363
-0.91982    0.067656   -0.013837
-0.94722    0.046332   -0.014312
-0.97353    0.023688   -0.014786
-0.99871 -0.00022282    -0.01526
-1.0227   -0.025342   -0.015734
-1.0454   -0.051609   -0.016205
-1.0667   -0.078962   -0.016673
-1.0867    -0.10734   -0.017143
-1.1053     -0.1367   -0.017658
-1.1224    -0.16696   -0.018349
-1.1383    -0.19798   -0.019413
-0.02041   -0.022659  -0.0001983
-0.04392   -0.049772 -0.00091939
-0.065527   -0.077318  -0.0014677
-0.085629    -0.10565  -0.0019693
-0.10431    -0.13491  -0.0024533
-0.12153    -0.16506  -0.0029287
-0.13724    -0.19602  -0.0034024
-0.15141    -0.22771  -0.0038762
-0.16401    -0.26006  -0.0043504
-0.175    -0.29299  -0.0048247
-0.18436    -0.32642  -0.0052991
-0.19207    -0.36027  -0.0057734
-0.1981    -0.39446  -0.0062478
-0.20245    -0.42891  -0.0067221
-0.20509    -0.46352  -0.0071964
-0.20603    -0.49823  -0.0076708
-0.20527    -0.53294  -0.0081451
-0.20279    -0.56757  -0.0086195
-0.19862    -0.60203  -0.0090938
-0.19276    -0.63625  -0.0095681
-0.18523    -0.67014   -0.010042
-0.17604    -0.70362   -0.010517
-0.16521     -0.7366   -0.010991
-0.15277    -0.76902   -0.011466
-0.13876    -0.80078    -0.01194
-0.1232    -0.83182   -0.012414
-0.10614    -0.86205   -0.012889
-0.087607    -0.89141   -0.013363
-0.067656    -0.91982   -0.013837
-0.046332    -0.94722   -0.014312
-0.023688    -0.97353   -0.014786
0.00022282    -0.99871    -0.01526
0.025342     -1.0227   -0.015734
0.051609     -1.0454   -0.016205
0.078962     -1.0667   -0.016673
0.10734     -1.0867   -0.017143
0.1367     -1.1053   -0.017658
0.16696     -1.1224   -0.018349
0.19798     -1.1383   -0.019413
0  0  0
0  0  0
0  0  0
0  0  0
0  0  0
0  0  0
0  0  0
0  0  0
0  0  0
0.023363   -0.010266  -0.0064262
0.048374   -0.020428  -0.0083341
0.07425   -0.029757  -0.0088878
0.10052   -0.037758  -0.0093568
0.12714   -0.044462  -0.0098288
0.15405   -0.049846   -0.010303
0.1812   -0.053899   -0.010777
0.20851   -0.056611   -0.011251
0.23592   -0.057978   -0.011725
0.26337   -0.057995   -0.012199
0.29078   -0.056664   -0.012674
0.31809   -0.053986   -0.013148
0.34524   -0.049969   -0.013622
0.37216   -0.044622   -0.014097
0.39879   -0.037959   -0.014571
0.42505   -0.029994   -0.015045
0.45089   -0.020748    -0.01552
0.47625   -0.010243   -0.015994
0.50106   0.0014955   -0.016469
0.52526     0.01444   -0.016943
0.5488    0.028558   -0.017417
0.57161    0.043816   -0.017892
0.59365    0.060177   -0.018366
0.61485    0.077601    -0.01884
0.63517    0.096047   -0.019315
0.65457     0.11547   -0.019789
0.67298     0.13582   -0.020263
0.69037     0.15705   -0.020738
0.7067     0.17912   -0.021212
0.72192     0.20195   -0.021686
0.736     0.22551   -0.022161
0.7489     0.24973   -0.022635
0.7606     0.27456   -0.023109
0.77107     0.29993   -0.023582
0.78027     0.32579   -0.024054
0.78818     0.35208   -0.024527
0.79475     0.37875   -0.025017
0.79998     0.40576   -0.025582
0.80397     0.43295   -0.026349
0.024137   0.0010124 -0.00041522
0.047175    0.002859 -0.00094572
0.071431   0.0057867  -0.0014947
0.095656   0.0098854  -0.0019832
0.11964    0.015174  -0.0024555
0.14333    0.021639   -0.002928
0.16667    0.029263  -0.0034018
0.18961    0.038025   -0.003876
0.21209    0.047905  -0.0043504
0.23406    0.058877  -0.0048247
0.25546    0.070916  -0.0052991
0.27624    0.083993  -0.0057734
0.29636    0.098075  -0.0062478
0.31576     0.11313  -0.0067221
0.3344     0.12912  -0.0071964
0.35222     0.14601  -0.0076708
0.3692     0.16375  -0.0081451
0.38528      0.1823  -0.0086195
0.40043     0.20163  -0.0090938
0.41462     0.22167  -0.0095681
0.4278     0.24239   -0.010042
0.43994     0.26373   -0.010517
0.45103     0.28564   -0.010991
0.46102     0.30807   -0.011466
0.46989     0.33097    -0.01194
0.47764     0.35427   -0.012414
0.48422     0.37793   -0.012889
0.48964     0.40188   -0.013363
0.49387     0.42606   -0.013837
0.49691     0.45043   -0.014312
0.49874     0.47492   -0.014786
0.49937     0.49946    -0.01526
0.4988     0.52401   -0.015735
0.49701      0.5485   -0.016209
0.49403     0.57288   -0.016681
0.48983     0.59707   -0.017145
0.48442     0.62103   -0.017598
0.47778     0.64471   -0.018064
0.47005     0.66809   -0.018719
0.022447    0.012619   0.0054649
0.045665    0.026524   0.0064038
0.068563    0.041705   0.0059166
0.090719    0.057918   0.0054043
0.11205      0.0752   0.0049214
0.13249     0.09351   0.0044467
0.15201      0.1128   0.0039727
0.17056     0.13303   0.0034986
0.18809     0.15415   0.0030243
0.20456      0.1761     0.00255
0.21994     0.19884   0.0020756
0.23417     0.22231   0.0016013
0.24724     0.24644   0.0011269
0.2591     0.27119   0.0006526
0.26973     0.29649  0.00017826
0.27911     0.32229 -0.00029609
0.28721     0.34851 -0.00077043
0.294      0.3751  -0.0012448
0.29948       0.402  -0.0017191
0.30364     0.42913  -0.0021935
0.30645     0.45643  -0.0026678
0.30792     0.48383  -0.0031421
0.30804     0.51128  -0.0036165
0.30681      0.5387  -0.0040908
0.30424     0.56602  -0.0045652
0.30032     0.59319  -0.0050395
0.29508     0.62013  -0.0055138
0.28851     0.64678  -0.0059882
0.28064     0.67307  -0.0064625
0.2715     0.69895  -0.0069369
0.26109     0.72434  -0.0074113
0.24944     0.74919  -0.0078856
0.23659     0.77344  -0.0083597
0.22256     0.79703  -0.0088329
0.20738      0.8199   -0.009304
0.19109     0.84198  -0.0097733
0.17371     0.86322   -0.010252
0.15528     0.88358   -0.010791
0.13587     0.90317   -0.011548
0.010266    0.023363  -0.0064262
0.020428    0.048374  -0.0083341
0.029757     0.07425  -0.0088878
0.037758     0.10052  -0.0093568
0.044462     0.12714  -0.0098288
0.049846     0.15405   -0.010303
0.053899      0.1812   -0.010777
0.056611     0.20851   -0.011251
0.057978     0.23592   -0.011725
0.057995     0.26337   -0.012199
0.056664     0.29078   -0.012674
0.053986     0.31809   -0.013148
0.049969     0.34524   -0.013622
0.044622     0.37216   -0.014097
0.037959     0.39879   -0.014571
0.029994     0.42505   -0.015045
0.020748     0.45089    -0.01552
0.010243     0.47625   -0.015994
-0.0014955     0.50106   -0.016469
-0.01444     0.52526   -0.016943
-0.028558      0.5488   -0.017417
-0.043816     0.57161   -0.017892
-0.060177     0.59365   -0.018366
-0.077601     0.61485    -0.01884
-0.096047     0.63517   -0.019315
-0.11547     0.65457   -0.019789
-0.13582     0.67298   -0.020263
-0.15705     0.69037   -0.020738
-0.17912      0.7067   -0.021212
-0.20195     0.72192   -0.021686
-0.22551       0.736   -0.022161
-0.24973      0.7489   -0.022635
-0.27456      0.7606   -0.023109
-0.29993     0.77107   -0.023582
-0.32579     0.78027   -0.024054
-0.35208     0.78818   -0.024527
-0.37875     0.79475   -0.025017
-0.40576     0.79998   -0.025582
-0.43295     0.80397   -0.026349
-0.0010124    0.024137 -0.00041522
-0.002859    0.047175 -0.00094572
-0.0057867    0.071431  -0.0014947
-0.0098854    0.095656  -0.0019832
-0.015174     0.11964  -0.0024555
-0.021639     0.14333   -0.002928
-0.029263     0.16667  -0.0034018
-0.038025     0.18961   -0.003876
-0.047905     0.21209  -0.0043504
-0.058877     0.23406  -0.0048247
-0.070916     0.25546  -0.0052991
-0.083993     0.27624  -0.0057734
-0.098075     0.29636  -0.0062478
-0.11313     0.31576  -0.0067221
-0.12912      0.3344  -0.0071964
-0.14601     0.35222  -0.0076708
-0.16375      0.3692  -0.0081451
-0.1823     0.38528  -0.0086195
-0.20163     0.40043  -0.0090938
-0.22167     0.41462  -0.0095681
-0.24239      0.4278   -0.010042
-0.26373     0.43994   -0.010517
-0.28564     0.45103   -0.010991
-0.30807     0.46102   -0.011466
-0.33097     0.46989    -0.01194
-0.35427     0.47764   -0.012414
-0.37793     0.48422   -0.012889
-0.40188     0.48964   -0.013363
-0.42606     0.49387   -0.013837
-0.45043     0.49691   -0.014312
-0.47492     0.49874   -0.014786
-0.49946     0.49937    -0.01526
-0.52401      0.4988   -0.015735
-0.5485     0.49701   -0.016209
-0.57288     0.49403   -0.016681
-0.59707     0.48983   -0.017145
-0.62103     0.48442   -0.017598
-0.64471     0.47778   -0.018064
-0.66809     0.47005   -0.018719
-0.012619    0.022447   0.0054649
-0.026524    0.045665   0.0064038
-0.041705    0.068563   0.0059166
-0.057918    0.090719   0.0054043
-0.0752     0.11205   0.0049214
-0.09351     0.13249   0.0044467
-0.1128     0.15201   0.0039727
-0.13303     0.17056   0.0034986
-0.15415     0.18809   0.0030243
-0.1761     0.20456     0.00255
-0.19884     0.21994   0.0020756
-0.22231     0.23417   0.0016013
-0.24644     0.24724   0.0011269
-0.27119      0.2591   0.0006526
-0.29649     0.26973  0.00017826
-0.32229     0.27911 -0.00029609
-0.34851     0.28721 -0.00077043
-0.3751       0.294  -0.0012448
-0.402     0.29948  -0.0017191
-0.42913     0.30364  -0.0021935
-0.45643     0.30645  -0.0026678
-0.48383     0.30792  -0.0031421
-0.51128     0.30804  -0.0036165
-0.5387     0.30681  -0.0040908
-0.56602     0.30424  -0.0045652
-0.59319     0.30032  -0.0050395
-0.62013     0.29508  -0.0055138
-0.64678     0.28851  -0.0059882
-0.67307     0.28064  -0.0064625
-0.69895      0.2715  -0.0069369
-0.72434     0.26109  -0.0074113
-0.74919     0.24944  -0.0078856
-0.77344     0.23659  -0.0083597
-0.79703     0.22256  -0.0088329
-0.8199     0.20738   -0.009304
-0.84198     0.19109  -0.0097733
-0.86322     0.17371   -0.010252
-0.88358     0.15528   -0.010791
-0.90317     0.13587   -0.011548
-0.023363    0.010266  -0.0064262
-0.048374    0.020428  -0.0083341
-0.07425    0.029757  -0.0088878
-0.10052    0.037758  -0.0093568
-0.12714    0.044462  -0.0098288
-0.15405    0.049846   -0.010303
-0.1812    0.053899   -0.010777
-0.20851    0.056611   -0.011251
-0.23592    0.057978   -0.011725
-0.26337    0.057995   -0.012199
-0.29078    0.056664   -0.012674
-0.31809    0.053986   -0.013148
-0.34524    0.049969   -0.013622
-0.37216    0.044622   -0.014097
-0.39879    0.037959   -0.014571
-0.42505    0.029994   -0.015045
-0.45089    0.020748    -0.01552
-0.47625    0.010243   -0.015994
-0.50106  -0.0014955   -0.016469
-0.52526    -0.01444   -0.016943
-0.5488   -0.028558   -0.017417
-0.57161   -0.043816   -0.017892
-0.59365   -0.060177   -0.018366
-0.61485   -0.077601    -0.01884
-0.63517   -0.096047   -0.019315
-0.65457    -0.11547   -0.019789
-0.67298    -0.13582   -0.020263
-0.69037    -0.15705   -0.020738
-0.7067    -0.17912   -0.021212
-0.72192    -0.20195   -0.021686
-0.736    -0.22551   -0.022161
-0.7489    -0.24973   -0.022635
-0.7606    -0.27456   -0.023109
-0.77107    -0.29993   -0.023582
-0.78027    -0.32579   -0.024054
-0.78818    -0.35208   -0.024527
-0.79475    -0.37875   -0.025017
-0.79998    -0.40576   -0.025582
-0.80397    -0.43295   -0.026349
-0.024137  -0.0010124 -0.00041522
-0.047175   -0.002859 -0.00094572
-0.071431  -0.0057867  -0.0014947
-0.095656  -0.0098854  -0.0019832
-0.11964   -0.015174  -0.0024555
-0.14333   -0.021639   -0.002928
-0.16667   -0.029263  -0.0034018
-0.18961   -0.038025   -0.003876
-0.21209   -0.047905  -0.0043504
-0.23406   -0.058877  -0.0048247
-0.25546   -0.070916  -0.0052991
-0.27624   -0.083993  -0.0057734
-0.29636   -0.098075  -0.0062478
-0.31576    -0.11313  -0.0067221
-0.3344    -0.12912  -0.0071964
-0.35222    -0.14601  -0.0076708
-0.3692    -0.16375  -0.0081451
-0.38528     -0.1823  -0.0086195
-0.40043    -0.20163  -0.0090938
-0.41462    -0.22167  -0.0095681
-0.4278    -0.24239   -0.010042
-0.43994    -0.26373   -0.010517
-0.45103    -0.28564   -0.010991
-0.46102    -0.30807   -0.011466
-0.46989    -0.33097    -0.01194
-0.47764    -0.35427   -0.012414
-0.48422    -0.37793   -0.012889
-0.48964    -0.40188   -0.013363
-0.49387    -0.42606   -0.013837
-0.49691    -0.45043   -0.014312
-0.49874    -0.47492   -0.014786
-0.49937    -0.49946    -0.01526
-0.4988    -0.52401   -0.015735
-0.49701     -0.5485   -0.016209
-0.49403    -0.57288   -0.016681
-0.48983    -0.59707   -0.017145
-0.48442    -0.62103   -0.017598
-0.47778    -0.64471   -0.018064
-0.47005    -0.66809   -0.018719
-0.022447   -0.012619   0.0054649
-0.045665   -0.026524   0.0064038
-0.068563   -0.041705   0.0059166
-0.090719   -0.057918   0.0054043
-0.11205     -0.0752   0.0049214
-0.13249    -0.09351   0.0044467
-0.15201     -0.1128   0.0039727
-0.17056    -0.13303   0.0034986
-0.18809    -0.15415   0.0030243
-0.20456     -0.1761     0.00255
-0.21994    -0.19884   0.0020756
-0.23417    -0.22231   0.0016013
-0.24724    -0.24644   0.0011269
-0.2591    -0.27119   0.0006526
-0.26973    -0.29649  0.00017826
-0.27911    -0.32229 -0.00029609
-0.28721    -0.34851 -0.00077043
-0.294     -0.3751  -0.0012448
-0.29948      -0.402  -0.0017191
-0.30364    -0.42913  -0.0021935
-0.30645    -0.45643  -0.0026678
-0.30792    -0.48383  -0.0031421
-0.30804    -0.51128  -0.0036165
-0.30681     -0.5387  -0.0040908
-0.30424    -0.56602  -0.0045652
-0.30032    -0.59319  -0.0050395
-0.29508    -0.62013  -0.0055138
-0.28851    -0.64678  -0.0059882
-0.28064    -0.67307  -0.0064625
-0.2715    -0.69895  -0.0069369
-0.26109    -0.72434  -0.0074113
-0.24944    -0.74919  -0.0078856
-0.23659    -0.77344  -0.0083597
-0.22256    -0.79703  -0.0088329
-0.20738     -0.8199   -0.009304
-0.19109    -0.84198  -0.0097733
-0.17371    -0.86322   -0.010252
-0.15528    -0.88358   -0.010791
-0.13587    -0.90317   -0.011548
-0.010266   -0.023363  -0.0064262
-0.020428   -0.048374  -0.0083341
-0.029757    -0.07425  -0.0088878
-0.037758    -0.10052  -0.0093568
-0.044462    -0.12714  -0.0098288
-0.049846    -0.15405   -0.010303
-0.053899     -0.1812   -0.010777
-0.056611    -0.20851   -0.011251
-0.057978    -0.23592   -0.011725
-0.057995    -0.26337   -0.012199
-0.056664    -0.29078   -0.012674
-0.053986    -0.31809   -0.013148
-0.049969    -0.34524   -0.013622
-0.044622    -0.37216   -0.014097
-0.037959    -0.39879   -0.014571
-0.029994    -0.42505   -0.015045
-0.020748    -0.45089    -0.01552
-0.010243    -0.47625   -0.015994
0.0014955    -0.50106   -0.016469
0.01444    -0.52526   -0.016943
0.028558     -0.5488   -0.017417
0.043816    -0.57161   -0.017892
0.060177    -0.59365   -0.018366
0.077601    -0.61485    -0.01884
0.096047    -0.63517   -0.019315
0.11547    -0.65457   -0.019789
0.13582    -0.67298   -0.020263
0.15705    -0.69037   -0.020738
0.17912     -0.7067   -0.021212
0.20195    -0.72192   -0.021686
0.22551      -0.736   -0.022161
0.24973     -0.7489   -0.022635
0.27456     -0.7606   -0.023109
0.29993    -0.77107   -0.023582
0.32579    -0.78027   -0.024054
0.35208    -0.78818   -0.024527
0.37875    -0.79475   -0.025017
0.40576    -0.79998   -0.025582
0.43295    -0.80397   -0.026349
0.0010124   -0.024137 -0.00041522
0.002859   -0.047175 -0.00094572
0.0057867   -0.071431  -0.0014947
0.0098854   -0.095656  -0.0019832
0.015174    -0.11964  -0.0024555
0.021639    -0.14333   -0.002928
0.029263    -0.16667  -0.0034018
0.038025    -0.18961   -0.003876
0.047905    -0.21209  -0.0043504
0.058877    -0.23406  -0.0048247
0.070916    -0.25546  -0.0052991
0.083993    -0.27624  -0.0057734
0.098075    -0.29636  -0.0062478
0.11313    -0.31576  -0.0067221
0.12912     -0.3344  -0.0071964
0.14601    -0.35222  -0.0076708
0.16375     -0.3692  -0.0081451
0.1823    -0.38528  -0.0086195
0.20163    -0.40043  -0.0090938
0.22167    -0.41462  -0.0095681
0.24239     -0.4278   -0.010042
0.26373    -0.43994   -0.010517
0.28564    -0.45103   -0.010991
0.30807    -0.46102   -0.011466
0.33097    -0.46989    -0.01194
0.35427    -0.47764   -0.012414
0.37793    -0.48422   -0.012889
0.40188    -0.48964   -0.013363
0.42606    -0.49387   -0.013837
0.45043    -0.49691   -0.014312
0.47492    -0.49874   -0.014786
0.49946    -0.49937    -0.01526
0.52401     -0.4988   -0.015735
0.5485    -0.49701   -0.016209
0.57288    -0.49403   -0.016681
0.59707    -0.48983   -0.017145
0.62103    -0.48442   -0.017598
0.64471    -0.47778   -0.018064
0.66809    -0.47005   -0.018719
0.012619   -0.022447   0.0054649
0.026524   -0.045665   0.0064038
0.041705   -0.068563   0.0059166
0.057918   -0.090719   0.0054043