# vtk DataFile Version 3.0
VTK Output
ASCII
DATASET UNSTRUCTURED_GRID

POINTS 1025 float
-0.5        -0.5           0
0.5        -0.5           0
0.5         0.5           0
-0.5         0.5           0
-0.5         -0.5           10
0.5         -0.5           10
0.5          0.5           10
-0.5          0.5           10
-0.25        -0.5           0
-1.3751e-12        -0.5           0
0.25        -0.5           0
0.5       -0.25           0
0.5 -1.3751e-12           0
0.5        0.25           0
0.25         0.5           0
1.3751e-12         0.5           0
-0.25         0.5           0
-0.5        0.25           0
-0.5  1.3751e-12           0
-0.5       -0.25           0
-0.25         -0.5           10
-1.37512e-12         -0.5           10
0.25         -0.5           10
0.5        -0.25           10
0.5 -1.37512e-12           10
0.5         0.25           10
0.25          0.5           10
1.37512e-12          0.5           10
-0.25          0.5           10
-0.5         0.25           10
-0.5  1.37512e-12           10
-0.5        -0.25           10
-0.5        -0.5        0.25
-0.5        -0.5         0.5
-0.5        -0.5        0.75
-0.5        -0.5           1
-0.5        -0.5        1.25
-0.5        -0.5         1.5
-0.5        -0.5        1.75
-0.5        -0.5           2
-0.5        -0.5        2.25
-0.5        -0.5         2.5
-0.5        -0.5        2.75
-0.5        -0.5           3
-0.5        -0.5        3.25
-0.5        -0.5         3.5
-0.5        -0.5        3.75
-0.5        -0.5           4
-0.5        -0.5        4.25
-0.5        -0.5         4.5
-0.5        -0.5        4.75
-0.5        -0.5           5
-0.5        -0.5        5.25
-0.5        -0.5         5.5
-0.5        -0.5        5.75
-0.5        -0.5           6
-0.5        -0.5        6.25
-0.5        -0.5         6.5
-0.5        -0.5        6.75
-0.5        -0.5           7
-0.5        -0.5        7.25
-0.5        -0.5         7.5
-0.5        -0.5        7.75
-0.5        -0.5           8
-0.5        -0.5        8.25
-0.5        -0.5         8.5
-0.5        -0.5        8.75
-0.5        -0.5           9
-0.5        -0.5        9.25
-0.5        -0.5         9.5
-0.5        -0.5        9.75
0.5        -0.5        0.25
0.5        -0.5         0.5
0.5        -0.5        0.75
0.5        -0.5           1
0.5        -0.5        1.25
0.5        -0.5         1.5
0.5        -0.5        1.75
0.5        -0.5           2
0.5        -0.5        2.25
0.5        -0.5         2.5
0.5        -0.5        2.75
0.5        -0.5           3
0.5        -0.5        3.25
0.5        -0.5         3.5
0.5        -0.5        3.75
0.5        -0.5           4
0.5        -0.5        4.25
0.5        -0.5         4.5
0.5        -0.5        4.75
0.5        -0.5           5
0.5        -0.5        5.25
0.5        -0.5         5.5
0.5        -0.5        5.75
0.5        -0.5           6
0.5        -0.5        6.25
0.5        -0.5         6.5
0.5        -0.5        6.75
0.5        -0.5           7
0.5        -0.5        7.25
0.5        -0.5         7.5
0.5        -0.5        7.75
0.5        -0.5           8
0.5        -0.5        8.25
0.5        -0.5         8.5
0.5        -0.5        8.75
0.5        -0.5           9
0.5        -0.5        9.25
0.5        -0.5         9.5
0.5        -0.5        9.75
0.5         0.5        0.25
0.5         0.5         0.5
0.5         0.5        0.75
0.5         0.5           1
0.5         0.5        1.25
0.5         0.5         1.5
0.5         0.5        1.75
0.5         0.5           2
0.5         0.5        2.25
0.5         0.5         2.5
0.5         0.5        2.75
0.5         0.5           3
0.5         0.5        3.25
0.5         0.5         3.5
0.5         0.5        3.75
0.5         0.5           4
0.5         0.5        4.25
0.5         0.5         4.5
0.5         0.5        4.75
0.5         0.5           5
0.5         0.5        5.25
0.5         0.5         5.5
0.5         0.5        5.75
0.5         0.5           6
0.5         0.5        6.25
0.5         0.5         6.5
0.5         0.5        6.75
0.5         0.5           7
0.5         0.5        7.25
0.5         0.5         7.5
0.5         0.5        7.75
0.5         0.5           8
0.5         0.5        8.25
0.5         0.5         8.5
0.5         0.5        8.75
0.5         0.5           9
0.5         0.5        9.25
0.5         0.5         9.5
0.5         0.5        9.75
-0.5         0.5        0.25
-0.5         0.5         0.5
-0.5         0.5        0.75
-0.5         0.5           1
-0.5         0.5        1.25
-0.5         0.5         1.5
-0.5         0.5        1.75
-0.5         0.5           2
-0.5         0.5        2.25
-0.5         0.5         2.5
-0.5         0.5        2.75
-0.5         0.5           3
-0.5         0.5        3.25
-0.5         0.5         3.5
-0.5         0.5        3.75
-0.5         0.5           4
-0.5         0.5        4.25
-0.5         0.5         4.5
-0.5         0.5        4.75
-0.5         0.5           5
-0.5         0.5        5.25
-0.5         0.5         5.5
-0.5         0.5        5.75
-0.5         0.5           6
-0.5         0.5        6.25
-0.5         0.5         6.5
-0.5         0.5        6.75
-0.5         0.5           7
-0.5         0.5        7.25
-0.5         0.5         7.5
-0.5         0.5        7.75
-0.5         0.5           8
-0.5         0.5        8.25
-0.5         0.5         8.5
-0.5         0.5        8.75
-0.5         0.5           9
-0.5         0.5        9.25
-0.5         0.5         9.5
-0.5         0.5        9.75
-0.25       -0.25           0
-0.25  6.8756e-13           0
-0.25        0.25           0
-6.8756e-13       -0.25           0
-3.7821e-24           0           0
6.8756e-13        0.25           0
0.25       -0.25           0
0.25 -6.8756e-13           0
0.25        0.25           0
-0.25        -0.5        0.25
-0.25        -0.5         0.5
-0.25        -0.5        0.75
-0.25        -0.5           1
-0.25        -0.5        1.25
-0.25        -0.5         1.5
-0.25        -0.5        1.75
-0.25        -0.5           2
-0.25        -0.5        2.25
-0.25        -0.5         2.5
-0.25        -0.5        2.75
-0.25        -0.5           3
-0.25        -0.5        3.25
-0.25        -0.5         3.5
-0.25        -0.5        3.75
-0.25        -0.5           4
-0.25        -0.5        4.25
-0.25        -0.5         4.5
-0.25        -0.5        4.75
-0.25        -0.5           5
-0.25        -0.5        5.25
-0.25        -0.5         5.5
-0.25        -0.5        5.75
-0.25        -0.5           6
-0.25        -0.5        6.25
-0.25        -0.5         6.5
-0.25        -0.5        6.75
-0.25        -0.5           7
-0.25        -0.5        7.25
-0.25        -0.5         7.5
-0.25        -0.5        7.75
-0.25        -0.5           8
-0.25        -0.5        8.25
-0.25        -0.5         8.5
-0.25        -0.5        8.75
-0.25        -0.5           9
-0.25        -0.5        9.25
-0.25        -0.5         9.5
-0.25        -0.5        9.75
-1.3751e-12        -0.5        0.25
-1.3751e-12        -0.5         0.5
-1.3751e-12        -0.5        0.75
-1.3751e-12        -0.5           1
-1.3751e-12        -0.5        1.25
-1.3751e-12        -0.5         1.5
-1.3751e-12        -0.5        1.75
-1.3751e-12        -0.5           2
-1.3751e-12        -0.5        2.25
-1.3751e-12        -0.5         2.5
-1.3751e-12        -0.5        2.75
-1.3751e-12        -0.5           3
-1.3751e-12        -0.5        3.25
-1.3751e-12        -0.5         3.5
-1.3751e-12        -0.5        3.75
-1.3751e-12        -0.5           4
-1.3751e-12        -0.5        4.25
-1.3751e-12        -0.5         4.5
-1.3751e-12        -0.5        4.75
-1.3751e-12        -0.5           5
-1.3751e-12        -0.5        5.25
-1.3751e-12        -0.5         5.5
-1.3751e-12        -0.5        5.75
-1.3751e-12        -0.5           6
-1.3751e-12        -0.5        6.25
-1.3751e-12        -0.5         6.5
-1.3751e-12        -0.5        6.75
-1.3751e-12        -0.5           7
-1.3751e-12        -0.5        7.25
-1.3751e-12        -0.5         7.5
-1.3751e-12        -0.5        7.75
-1.3751e-12        -0.5           8
-1.3751e-12        -0.5        8.25
-1.3751e-12        -0.5         8.5
-1.3751e-12        -0.5        8.75
-1.3751e-12        -0.5           9
-1.3751e-12        -0.5        9.25
-1.3751e-12        -0.5         9.5
-1.3751e-12        -0.5        9.75
0.25        -0.5        0.25
0.25        -0.5         0.5
0.25        -0.5        0.75
0.25        -0.5           1
0.25        -0.5        1.25
0.25        -0.5         1.5
0.25        -0.5        1.75
0.25        -0.5           2
0.25        -0.5        2.25
0.25        -0.5         2.5
0.25        -0.5        2.75
0.25        -0.5           3
0.25        -0.5        3.25
0.25        -0.5         3.5
0.25        -0.5        3.75
0.25        -0.5           4
0.25        -0.5        4.25
0.25        -0.5         4.5
0.25        -0.5        4.75
0.25        -0.5           5
0.25        -0.5        5.25
0.25        -0.5         5.5
0.25        -0.5        5.75
0.25        -0.5           6
0.25        -0.5        6.25
0.25        -0.5         6.5
0.25        -0.5        6.75
0.25        -0.5           7
0.25        -0.5        7.25
0.25        -0.5         7.5
0.25        -0.5        7.75
0.25        -0.5           8
0.25        -0.5        8.25
0.25        -0.5         8.5
0.25        -0.5        8.75
0.25        -0.5           9
0.25        -0.5        9.25
0.25        -0.5         9.5
0.25        -0.5        9.75
0.5       -0.25        0.25
0.5       -0.25         0.5
0.5       -0.25        0.75
0.5       -0.25           1
0.5       -0.25        1.25
0.5       -0.25         1.5
0.5       -0.25        1.75
0.5       -0.25           2
0.5       -0.25        2.25
0.5       -0.25         2.5
0.5       -0.25        2.75
0.5       -0.25           3
0.5       -0.25        3.25
0.5       -0.25         3.5
0.5       -0.25        3.75
0.5       -0.25           4
0.5       -0.25        4.25
[...]
POINT_DATA 1025
VECTORS displacement double
0  0  0
0  0  0
0  0  0
0  0  0
0.63795    -0.19352  -0.0052706
0.19352     0.63795  -0.0052706
-0.63795     0.19352  -0.0052706
-0.19352    -0.63795  -0.0052706
0  0  0
0  0  0
0  0  0
0  0  0
0  0  0
0  0  0
0  0  0
0  0  0
0  0  0
0  0  0
0  0  0
0  0  0
0.52684    0.014347  -0.0087369
0.41573     0.22221  -0.0049664
0.30463     0.43008  -0.0013493
-0.014347     0.52684  -0.0087369
-0.22221     0.41573  -0.0049664
-0.43008     0.30463  -0.0013493
-0.52684   -0.014347  -0.0087369
-0.41573    -0.22221  -0.0049664
-0.30463    -0.43008  -0.0013493
0.014347    -0.52684  -0.0087369
0.22221    -0.41573  -0.0049664
0.43008    -0.30463  -0.0013493
0.011081   -0.010517 -5.0067e-05
0.024241   -0.022774 -0.00023145
0.037356   -0.034398  -0.0003684
0.050642   -0.045616 -0.00049389
0.064192   -0.056499 -0.00061517
0.078006   -0.067047 -0.00073434
0.092077   -0.077252  -0.0008531
0.10639   -0.087107 -0.00097189
0.12095   -0.096608  -0.0010907
0.13573    -0.10575  -0.0012096
0.15074    -0.11452  -0.0013285
0.16595    -0.12292  -0.0014474
0.18137    -0.13095  -0.0015664
0.19698    -0.13859  -0.0016853
0.21277    -0.14585  -0.0018042
0.22874    -0.15272  -0.0019231
0.24487    -0.15919   -0.002042
0.26116    -0.16526  -0.0021609
0.27759    -0.17093  -0.0022798
0.29415     -0.1762  -0.0023987
0.31084    -0.18106  -0.0025176
0.32764     -0.1855  -0.0026365
0.34455    -0.18953  -0.0027554
0.36155    -0.19315  -0.0028743
0.37864    -0.19634  -0.0029932
0.3958    -0.19912  -0.0031121
0.41302    -0.20147   -0.003231
0.43029    -0.20339  -0.0033499
0.44761    -0.20489  -0.0034688
0.46495    -0.20597  -0.0035877
0.48232    -0.20662  -0.0037066
0.4997    -0.20684  -0.0038255
0.51708    -0.20663  -0.0039442
0.53445      -0.206  -0.0040623
0.5518    -0.20494  -0.0041796
0.56912    -0.20345  -0.0042978
0.5864    -0.20152  -0.0044268
0.60362    -0.19918  -0.0045991
0.62081    -0.19646  -0.0048636
0.010517    0.011081 -5.0067e-05
0.022774    0.024241 -0.00023145
0.034398    0.037356  -0.0003684
0.045616    0.050642 -0.00049389
0.056499    0.064192 -0.00061517
0.067047    0.078006 -0.00073434
0.077252    0.092077  -0.0008531
0.087107     0.10639 -0.00097189
0.096608     0.12095  -0.0010907
0.10575     0.13573  -0.0012096
0.11452     0.15074  -0.0013285
0.12292     0.16595  -0.0014474
0.13095     0.18137  -0.0015664
0.13859     0.19698  -0.0016853
0.14585     0.21277  -0.0018042
0.15272     0.22874  -0.0019231
0.15919     0.24487   -0.002042
0.16526     0.26116  -0.0021609
0.17093     0.27759  -0.0022798
0.1762     0.29415  -0.0023987
0.18106     0.31084  -0.0025176
0.1855     0.32764  -0.0026365
0.18953     0.34455  -0.0027554
0.19315     0.36155  -0.0028743
0.19634     0.37864  -0.0029932
0.19912      0.3958  -0.0031121
0.20147     0.41302   -0.003231
0.20339     0.43029  -0.0033499
0.20489     0.44761  -0.0034688
0.20597     0.46495  -0.0035877
0.20662     0.48232  -0.0037066
0.20684      0.4997  -0.0038255
0.20663     0.51708  -0.0039442
0.206     0.53445  -0.0040623
0.20494      0.5518  -0.0041796
0.20345     0.56912  -0.0042978
0.20152      0.5864  -0.0044268
0.19918     0.60362  -0.0045991
0.19646     0.62081  -0.0048636
-0.011081    0.010517 -5.0067e-05
-0.024241    0.022774 -0.00023145
-0.037356    0.034398  -0.0003684
-0.050642    0.045616 -0.00049389
-0.064192    0.056499 -0.00061517
-0.078006    0.067047 -0.00073434
-0.092077    0.077252  -0.0008531
-0.10639    0.087107 -0.00097189
-0.12095    0.096608  -0.0010907
-0.13573     0.10575  -0.0012096
-0.15074     0.11452  -0.0013285
-0.16595     0.12292  -0.0014474
-0.18137     0.13095  -0.0015664
-0.19698     0.13859  -0.0016853
-0.21277     0.14585  -0.0018042
-0.22874     0.15272  -0.0019231
-0.24487     0.15919   -0.002042
-0.26116     0.16526  -0.0021609
-0.27759     0.17093  -0.0022798
-0.29415      0.1762  -0.0023987
-0.31084     0.18106  -0.0025176
-0.32764      0.1855  -0.0026365
-0.34455     0.18953  -0.0027554
-0.36155     0.19315  -0.0028743
-0.37864     0.19634  -0.0029932
-0.3958     0.19912  -0.0031121
-0.41302     0.20147   -0.003231
-0.43029     0.20339  -0.0033499
-0.44761     0.20489  -0.0034688
-0.46495     0.20597  -0.0035877
-0.48232     0.20662  -0.0037066
-0.4997     0.20684  -0.0038255
-0.51708     0.20663  -0.0039442
-0.53445       0.206  -0.0040623
-0.5518     0.20494  -0.0041796
-0.56912     0.20345  -0.0042978
-0.5864     0.20152  -0.0044268
-0.60362     0.19918  -0.0045991
-0.62081     0.19646  -0.0048636
-0.010517   -0.011081 -5.0067e-05
-0.022774   -0.024241 -0.00023145
-0.034398   -0.037356  -0.0003684
-0.045616   -0.050642 -0.00049389
-0.056499   -0.064192 -0.00061517
-0.067047   -0.078006 -0.00073434
-0.077252   -0.092077  -0.0008531
-0.087107    -0.10639 -0.00097189
-0.096608    -0.12095  -0.0010907
-0.10575    -0.13573  -0.0012096
-0.11452    -0.15074  -0.0013285
-0.12292    -0.16595  -0.0014474
-0.13095    -0.18137  -0.0015664
-0.13859    -0.19698  -0.0016853
-0.14585    -0.21277  -0.0018042
-0.15272    -0.22874  -0.0019231
-0.15919    -0.24487   -0.002042
-0.16526    -0.26116  -0.0021609
-0.17093    -0.27759  -0.0022798
-0.1762    -0.29415  -0.0023987
-0.18106    -0.31084  -0.0025176
-0.1855    -0.32764  -0.0026365
-0.18953    -0.34455  -0.0027554
-0.19315    -0.36155  -0.0028743
-0.19634    -0.37864  -0.0029932
-0.19912     -0.3958  -0.0031121
-0.20147    -0.41302   -0.003231
-0.20339    -0.43029  -0.0033499
-0.20489    -0.44761  -0.0034688
-0.20597    -0.46495  -0.0035877
-0.20662    -0.48232  -0.0037066
-0.20684     -0.4997  -0.0038255
-0.20663    -0.51708  -0.0039442
-0.206    -0.53445  -0.0040623
-0.20494     -0.5518  -0.0041796
-0.20345    -0.56912  -0.0042978
-0.20152     -0.5864  -0.0044268
-0.19918    -0.60362  -0.0045991
-0.19646    -0.62081  -0.0048636
0  0  0
0  0  0
0  0  0
0  0  0
0  0  0
0  0  0
0  0  0
0  0  0
0  0  0
0.011609  -0.0054438  -0.0030987
0.023938   -0.011012  -0.0039304
0.036586   -0.016443  -0.0040742
0.049356   -0.021535  -0.0041863
0.06224   -0.026312  -0.0043037
0.075237    -0.03077  -0.0044225
0.088341   -0.034907  -0.0045413
0.10154    -0.03872  -0.0046602
0.11483   -0.042208  -0.0047791
0.12821   -0.045367   -0.004898
0.14165   -0.048197  -0.0050169
0.15516   -0.050695  -0.0051358
0.16873   -0.052861  -0.0052547
0.18235   -0.054692  -0.0053736
0.19601   -0.056187  -0.0054925
0.2097   -0.057347  -0.0056114
0.22342   -0.058169  -0.0057303
0.23715   -0.058654  -0.0058492
0.25089   -0.058801  -0.0059681
0.26463    -0.05861   -0.006087
0.27836   -0.058081  -0.0062059
0.29208   -0.057215  -0.0063248
0.30576   -0.056012  -0.0064437
0.31942   -0.054473  -0.0065626
0.33303   -0.052599  -0.0066815
0.34659    -0.05039  -0.0068004
0.3601   -0.047849  -0.0069193
0.37353   -0.044976  -0.0070382
0.3869   -0.041774  -0.0071571
0.40018   -0.038244   -0.007276
0.41337   -0.034389  -0.0073949
0.42646    -0.03021  -0.0075138
0.43944   -0.025711  -0.0076327
0.45231   -0.020894  -0.0077513
0.46505   -0.015762  -0.0078695
0.47767   -0.010314  -0.0079879
0.49015   -0.004548    -0.00811
0.50248   0.0015322  -0.0082496
0.51467   0.0078858  -0.0084399
0.012112  0.00025441 -0.00010482
0.023669  0.00071733 -0.00023757
0.035875   0.0014519   -0.000375
0.048128   0.0024821 -0.00049735
0.060349   0.0038143 -0.00061573
0.072532   0.0054476 -0.00073419
0.08467   0.0073804 -0.00085295
0.096757   0.0096112 -0.00097183
0.10879    0.012139  -0.0010907
0.12075    0.014961  -0.0012096
0.13264    0.018076  -0.0013285
0.14445    0.021484  -0.0014474
0.15617     0.02518  -0.0015664
0.1678    0.029163  -0.0016853
0.17932    0.033431  -0.0018042
0.19074    0.037982  -0.0019231
0.20204    0.042811   -0.002042
0.21322    0.047918  -0.0021609
0.22428    0.053297  -0.0022798
0.23519    0.058947  -0.0023987
0.24596    0.064863  -0.0025176
0.25659    0.071042  -0.0026365
0.26706    0.077481  -0.0027554
0.27737    0.084175  -0.0028743
0.28751    0.091121  -0.0029932
0.29747    0.098314  -0.0031121
0.30726     0.10575   -0.003231
0.31686     0.11342  -0.0033499
0.32627     0.12133  -0.0034688
0.33548     0.12947  -0.0035877
0.34449     0.13783  -0.0037066
0.35329     0.14641  -0.0038255
0.36188      0.1552  -0.0039445
0.37025     0.16421  -0.0040633
0.37839     0.17341  -0.0041816
0.38631     0.18282  -0.0042982
0.39398     0.19242  -0.0044118
0.40141     0.20222  -0.0045285
0.40861     0.21219  -0.0046914
0.011379   0.0060344   0.0028568
0.023259    0.012541   0.0034456
0.03516    0.019441   0.0033288
0.046895    0.026597    0.003195
0.058447     0.03404   0.0030731
0.069811    0.041764   0.0029541
0.080982    0.049766   0.0028353
0.091952    0.058041   0.0027165
0.10272    0.066582   0.0025976
0.11327    0.075386   0.0024787
0.1236    0.084446   0.0023598
0.1337    0.093758   0.0022409
0.14357     0.10332    0.002122
0.15321     0.11311   0.0020031
0.1626     0.12314   0.0018842
0.17174      0.1334   0.0017653
0.18063     0.14388   0.0016464
0.18925     0.15458   0.0015275
0.19761     0.16548   0.0014086
0.2057     0.17659   0.0012897
0.21352     0.18789   0.0011708
0.22105     0.19939   0.0010519
0.2283     0.21106  0.00093297
0.23526     0.22291  0.00081407
0.24193     0.23492  0.00069517
0.2483      0.2471  0.00057627
0.25436     0.25943  0.00045736
0.26013      0.2719  0.00033846
0.26558     0.28451  0.00021956
0.27072     0.29725  0.00010065
0.27555     0.31012 -1.8255e-05
0.28006      0.3231 -0.00013715
0.28425     0.33619 -0.00025599
0.28812     0.34937 -0.00037461
0.29166     0.36265 -0.00049278
0.29487     0.37601 -0.00061071
0.29774     0.38944 -0.00073144
0.30027     0.40295 -0.00086779
0.30251     0.41653  -0.0010567
0.0054438    0.011609  -0.0030987
0.011012    0.023938  -0.0039304
0.016443    0.036586  -0.0040742
0.021535    0.049356  -0.0041863
0.026312     0.06224  -0.0043037
0.03077    0.075237  -0.0044225
0.034907    0.088341  -0.0045413
0.03872     0.10154  -0.0046602
0.042208     0.11483  -0.0047791
0.045367     0.12821   -0.004898
0.048197     0.14165  -0.0050169
0.050695     0.15516  -0.0051358
0.052861     0.16873  -0.0052547
0.054692     0.18235  -0.0053736
0.056187     0.19601  -0.0054925
0.057347      0.2097  -0.0056114
0.058169     0.22342  -0.0057303
0.058654     0.23715  -0.0058492
0.058801     0.25089  -0.0059681
0.05861     0.26463   -0.006087
0.058081     0.27836  -0.0062059
0.057215     0.29208  -0.0063248
0.056012     0.30576  -0.0064437
0.054473     0.31942  -0.0065626
0.052599     0.33303  -0.0066815
0.05039     0.34659  -0.0068004
0.047849      0.3601  -0.0069193
0.044976     0.37353  -0.0070382
0.041774      0.3869  -0.0071571
0.038244     0.40018   -0.007276
0.034389     0.41337  -0.0073949
0.03021     0.42646  -0.0075138
0.025711     0.43944  -0.0076327
0.020894     0.45231  -0.0077513
0.015762     0.46505  -0.0078695
0.010314     0.47767  -0.0079879
0.004548     0.49015    -0.00811
-0.0015322     0.50248  -0.0082496
-0.0078858     0.51467  -0.0084399
-0.00025441    0.012112 -0.00010482
-0.00071733    0.023669 -0.00023757
-0.0014519    0.035875   -0.000375
-0.0024821    0.048128 -0.00049735
-0.0038143    0.060349 -0.00061573
-0.0054476    0.072532 -0.00073419
-0.0073804     0.08467 -0.00085295
-0.0096112    0.096757 -0.00097183
-0.012139     0.10879  -0.0010907
-0.014961     0.12075  -0.0012096
-0.018076     0.13264  -0.0013285
-0.021484     0.14445  -0.0014474
-0.02518     0.15617  -0.0015664
-0.029163      0.1678  -0.0016853
-0.033431     0.17932  -0.0018042
-0.037982     0.19074  -0.0019231
-0.042811     0.20204   -0.002042
-0.047918     0.21322  -0.0021609
-0.053297     0.22428  -0.0022798
-0.058947     0.23519  -0.0023987
-0.064863     0.24596  -0.0025176
-0.071042     0.25659  -0.0026365
-0.077481     0.26706  -0.0027554
-0.084175     0.27737  -0.0028743
-0.091121     0.28751  -0.0029932
-0.098314     0.29747  -0.0031121
-0.10575     0.30726   -0.003231
-0.11342     0.31686  -0.0033499
-0.12133     0.32627  -0.0034688
-0.12947     0.33548  -0.0035877
-0.13783     0.34449  -0.0037066
-0.14641     0.35329  -0.0038255
-0.1552     0.36188  -0.0039445
-0.16421     0.37025  -0.0040633
-0.17341     0.37839  -0.0041816
-0.18282     0.38631  -0.0042982
-0.19242     0.39398  -0.0044118
-0.20222     0.40141  -0.0045285
-0.21219     0.40861  -0.0046914
-0.0060344    0.011379   0.0028568
-0.012541    0.023259   0.0034456
-0.019441     0.03516   0.0033288
-0.026597    0.046895    0.003195
-0.03404    0.058447   0.0030731
-0.041764    0.069811   0.0029541
-0.049766    0.080982   0.0028353
-0.058041    0.091952   0.0027165
-0.066582     0.10272   0.0025976
-0.075386     0.11327   0.0024787
-0.084446      0.1236   0.0023598
-0.093758      0.1337   0.0022409
-0.10332     0.14357    0.002122
-0.11311     0.15321   0.0020031
-0.12314      0.1626   0.0018842
-0.1334     0.17174   0.0017653
-0.14388     0.18063   0.0016464
-0.15458     0.18925   0.0015275
-0.16548     0.19761   0.0014086
-0.17659      0.2057   0.0012897
-0.18789     0.21352   0.0011708
-0.19939     0.22105   0.0010519
-0.21106      0.2283  0.00093297
-0.22291     0.23526  0.00081407
-0.23492     0.24193  0.00069517
-0.2471      0.2483  0.00057627
-0.25943     0.25436  0.00045736
-0.2719     0.26013  0.00033846
-0.28451     0.26558  0.00021956
-0.29725     0.27072  0.00010065
-0.31012     0.27555 -1.8255e-05
-0.3231     0.28006 -0.00013715
-0.33619     0.28425 -0.00025599
-0.34937     0.28812 -0.00037461
-0.36265     0.29166 -0.00049278
-0.37601     0.29487 -0.00061071
-0.38944     0.29774 -0.00073144
-0.40295     0.30027 -0.00086779
-0.41653     0.30251  -0.0010567
-0.011609   0.0054438  -0.0030987
-0.023938    0.011012  -0.0039304
-0.036586    0.016443  -0.0040742
-0.049356    0.021535  -0.0041863
-0.06224    0.026312  -0.0043037
-0.075237     0.03077  -0.0044225
-0.088341    0.034907  -0.0045413
-0.10154     0.03872  -0.0046602
-0.11483    0.042208  -0.0047791
-0.12821    0.045367   -0.004898
-0.14165    0.048197  -0.0050169
-0.15516    0.050695  -0.0051358
-0.16873    0.052861  -0.0052547
-0.18235    0.054692  -0.0053736
-0.19601    0.056187  -0.0054925
-0.2097    0.057347  -0.0056114
-0.22342    0.058169  -0.0057303
-0.23715    0.058654  -0.0058492
-0.25089    0.058801  -0.0059681
-0.26463     0.05861   -0.006087
-0.27836    0.058081  -0.0062059
-0.29208    0.057215  -0.0063248
-0.30576    0.056012  -0.0064437
-0.31942    0.054473  -0.0065626
-0.33303    0.052599  -0.0066815
-0.34659     0.05039  -0.0068004
-0.3601    0.047849  -0.0069193
-0.37353    0.044976  -0.0070382
-0.3869    0.041774  -0.0071571
-0.40018    0.038244   -0.007276
-0.41337    0.034389  -0.0073949
-0.42646     0.03021  -0.0075138
-0.43944    0.025711  -0.0076327
-0.45231    0.020894  -0.0077513
-0.46505    0.015762  -0.0078695
-0.47767    0.010314  -0.0079879
-0.49015    0.004548    -0.00811
-0.50248  -0.0015322  -0.0082496
-0.51467  -0.0078858  -0.0084399
-0.012112 -0.00025441 -0.00010482
-0.023669 -0.00071733 -0.00023757
-0.035875  -0.0014519   -0.000375
-0.048128  -0.0024821 -0.00049735
-0.060349  -0.0038143 -0.00061573
-0.072532  -0.0054476 -0.00073419
-0.08467  -0.0073804 -0.00085295
-0.096757  -0.0096112 -0.00097183
-0.10879   -0.012139  -0.0010907
-0.12075   -0.014961  -0.0012096
-0.13264   -0.018076  -0.0013285
-0.14445   -0.021484  -0.0014474
-0.15617    -0.02518  -0.0015664
-0.1678   -0.029163  -0.0016853
-0.17932   -0.033431  -0.0018042
-0.19074   -0.037982  -0.0019231
-0.20204   -0.042811   -0.002042
-0.21322   -0.047918  -0.0021609
-0.22428   -0.053297  -0.0022798
-0.23519   -0.058947  -0.0023987
-0.24596   -0.064863  -0.0025176
-0.25659   -0.071042  -0.0026365
-0.26706   -0.077481  -0.0027554
-0.27737   -0.084175  -0.0028743
-0.28751   -0.091121  -0.0029932
-0.29747   -0.098314  -0.0031121
-0.30726    -0.10575   -0.003231
-0.31686    -0.11342  -0.0033499
-0.32627    -0.12133  -0.0034688
-0.33548    -0.12947  -0.0035877
-0.34449    -0.13783  -0.0037066
-0.35329    -0.14641  -0.0038255
-0.36188     -0.1552  -0.0039445
-0.37025    -0.16421  -0.0040633
-0.37839    -0.17341  -0.0041816
-0.38631    -0.18282  -0.0042982
-0.39398    -0.19242  -0.0044118
-0.40141    -0.20222  -0.0045285
-0.40861    -0.21219  -0.0046914
-0.011379  -0.0060344   0.0028568
-0.023259   -0.012541   0.0034456
-0.03516   -0.019441   0.0033288
-0.046895   -0.026597    0.003195
-0.058447    -0.03404   0.0030731
-0.069811   -0.041764   0.0029541
-0.080982   -0.049766   0.0028353
-0.091952   -0.058041   0.0027165
-0.10272   -0.066582   0.0025976
-0.11327   -0.075386   0.0024787
-0.1236   -0.084446   0.0023598
-0.1337   -0.093758   0.0022409
-0.14357    -0.10332    0.002122
-0.15321    -0.11311   0.0020031
-0.1626    -0.12314   0.0018842
-0.17174     -0.1334   0.0017653
-0.18063    -0.14388   0.0016464
-0.18925    -0.15458   0.0015275
-0.19761    -0.16548   0.0014086
-0.2057    -0.17659   0.0012897
-0.21352    -0.18789   0.0011708
-0.22105    -0.19939   0.0010519
-0.2283    -0.21106  0.00093297
-0.23526    -0.22291  0.00081407
-0.24193    -0.23492  0.00069517
-0.2483     -0.2471  0.00057627
-0.25436    -0.25943  0.00045736
-0.26013     -0.2719  0.00033846
-0.26558    -0.28451  0.00021956
-0.27072    -0.29725  0.00010065
-0.27555    -0.31012 -1.8255e-05
-0.28006     -0.3231 -0.00013715
-0.28425    -0.33619 -0.00025599
-0.28812    -0.34937 -0.00037461
-0.29166    -0.36265 -0.00049278
-0.29487    -0.37601 -0.00061071
-0.29774    -0.38944 -0.00073144
-0.30027    -0.40295 -0.00086779
-0.30251    -0.41653  -0.0010567
-0.0054438   -0.011609  -0.0030987
-0.011012   -0.023938  -0.0039304
-0.016443   -0.036586  -0.0040742
-0.021535   -0.049356  -0.0041863
-0.026312    -0.06224  -0.0043037
-0.03077   -0.075237  -0.0044225
-0.034907   -0.088341  -0.0045413
-0.03872    -0.10154  -0.0046602
-0.042208    -0.11483  -0.0047791
-0.045367    -0.12821   -0.004898
-0.048197    -0.14165  -0.0050169
-0.050695    -0.15516  -0.0051358
-0.052861    -0.16873  -0.0052547
-0.054692    -0.18235  -0.0053736
-0.056187    -0.19601  -0.0054925
-0.057347     -0.2097  -0.0056114
-0.058169    -0.22342  -0.0057303
-0.058654    -0.23715  -0.0058492
-0.058801    -0.25089  -0.0059681
-0.05861    -0.26463   -0.006087
-0.058081    -0.27836  -0.0062059
-0.057215    -0.29208  -0.0063248
-0.056012    -0.30576  -0.0064437
-0.054473    -0.31942  -0.0065626
-0.052599    -0.33303  -0.0066815
-0.05039    -0.34659  -0.0068004
-0.047849     -0.3601  -0.0069193
-0.044976    -0.37353  -0.0070382
-0.041774     -0.3869  -0.0071571
-0.038244    -0.40018   -0.007276
-0.034389    -0.41337  -0.0073949
-0.03021    -0.42646  -0.0075138
-0.025711    -0.43944  -0.0076327
-0.020894    -0.45231  -0.0077513
-0.015762    -0.46505  -0.0078695
-0.010314    -0.47767  -0.0079879
-0.004548    -0.49015    -0.00811
0.0015322    -0.50248  -0.0082496
0.0078858    -0.51467  -0.0084399
0.00025441   -0.012112 -0.00010482
0.00071733   -0.023669 -0.00023757
0.0014519   -0.035875   -0.000375
0.0024821   -0.048128 -0.00049735
0.0038143   -0.060349 -0.00061573
0.0054476   -0.072532 -0.00073419
0.0073804    -0.08467 -0.00085295
0.0096112   -0.096757 -0.00097183
0.012139    -0.10879  -0.0010907
0.014961    -0.12075  -0.0012096
0.018076    -0.13264  -0.0013285
0.021484    -0.14445  -0.0014474
0.02518    -0.15617  -0.0015664
0.029163     -0.1678  -0.0016853
0.033431    -0.17932  -0.0018042
0.037982    -0.19074  -0.0019231
0.042811    -0.20204   -0.002042
0.047918    -0.21322  -0.0021609
0.053297    -0.22428  -0.0022798
0.058947    -0.23519  -0.0023987
0.064863    -0.24596  -0.0025176
0.071042    -0.25659  -0.0026365
0.077481    -0.26706  -0.0027554
0.084175    -0.27737  -0.0028743
0.091121    -0.28751  -0.0029932
0.098314    -0.29747  -0.0031121
0.10575    -0.30726   -0.003231
0.11342    -0.31686  -0.0033499
0.12133    -0.32627  -0.0034688
0.12947    -0.33548  -0.0035877
0.13783    -0.34449  -0.0037066
0.14641    -0.35329  -0.0038255
0.1552    -0.36188  -0.0039445
0.16421    -0.37025  -0.0040633
0.17341    -0.37839  -0.0041816
0.18282    -0.38631  -0.0042982
0.19242    -0.39398  -0.0044118
0.20222    -0.40141  -0.0045285
0.21219    -0.40861  -0.0046914