# vtk DataFile Version 3.0
VTK Output
ASCII
DATASET UNSTRUCTURED_GRID

POINTS 1025 float
-0.5        -0.5           0
0.5        -0.5           0
0.5         0.5           0
-0.5         0.5           0
-0.5         -0.5           10
0.5         -0.5           10
0.5          0.5           10
-0.5          0.5           10
-0.25        -0.5           0
-1.3751e-12        -0.5           0
0.25        -0.5           0
0.5       -0.25           0
0.5 -1.3751e-12           0
0.5        0.25           0
0.25         0.5           0
1.3751e-12         0.5           0
-0.25         0.5           0
-0.5        0.25           0
-0.5  1.3751e-12           0
-0.5       -0.25           0
-0.25         -0.5           10
-1.37512e-12         -0.5           10
0.25         -0.5           10
0.5        -0.25           10
0.5 -1.37512e-12           10
0.5         0.25           10
0.25          0.5           10
1.37512e-12          0.5           10
-0.25          0.5           10
-0.5         0.25           10
-0.5  1.37512e-12           10
-0.5        -0.25           10
-0.5        -0.5        0.25
-0.5        -0.5         0.5
-0.5        -0.5        0.75
-0.5        -0.5           1
-0.5        -0.5        1.25
-0.5        -0.5         1.5
-0.5        -0.5        1.75
-0.5        -0.5           2
-0.5        -0.5        2.25
-0.5        -0.5         2.5
-0.5        -0.5        2.75
-0.5        -0.5           3
-0.5        -0.5        3.25
-0.5        -0.5         3.5
-0.5        -0.5        3.75
-0.5        -0.5           4
-0.5        -0.5        4.25
-0.5        -0.5         4.5
-0.5        -0.5        4.75
-0.5        -0.5           5
-0.5        -0.5        5.25
-0.5        -0.5         5.5
-0.5        -0.5        5.75
-0.5        -0.5           6
-0.5        -0.5        6.25
-0.5        -0.5         6.5
-0.5        -0.5        6.75
-0.5        -0.5           7
-0.5        -0.5        7.25
-0.5        -0.5         7.5
-0.5        -0.5        7.75
-0.5        -0.5           8
-0.5        -0.5        8.25
-0.5        -0.5         8.5
-0.5        -0.5        8.75
-0.5        -0.5           9
-0.5        -0.5        9.25
-0.5        -0.5         9.5
-0.5        -0.5        9.75
0.5        -0.5        0.25
0.5        -0.5         0.5
0.5        -0.5        0.75
0.5        -0.5           1
0.5        -0.5        1.25
0.5        -0.5         1.5
0.5        -0.5        1.75
0.5        -0.5           2
0.5        -0.5        2.25
0.5        -0.5         2.5
0.5        -0.5        2.75
0.5        -0.5           3
0.5        -0.5        3.25
0.5        -0.5         3.5
0.5        -0.5        3.75
0.5        -0.5           4
0.5        -0.5        4.25
0.5        -0.5         4.5
0.5        -0.5        4.75
0.5        -0.5           5
0.5        -0.5        5.25
0.5        -0.5         5.5
0.5        -0.5        5.75
0.5        -0.5           6
0.5        -0.5        6.25
0.5        -0.5         6.5
0.5        -0.5        6.75
0.5        -0.5           7
0.5        -0.5        7.25
0.5        -0.5         7.5
0.5        -0.5        7.75
0.5        -0.5           8
0.5        -0.5        8.25
0.5        -0.5         8.5
0.5        -0.5        8.75
0.5        -0.5           9
0.5        -0.5        9.25
0.5        -0.5         9.5
0.5        -0.5        9.75
0.5         0.5        0.25
0.5         0.5         0.5
0.5         0.5        0.75
0.5         0.5           1
0.5         0.5        1.25
0.5         0.5         1.5
0.5         0.5        1.75
0.5         0.5           2
0.5         0.5        2.25
0.5         0.5         2.5
0.5         0.5        2.75
0.5         0.5           3
0.5         0.5        3.25
0.5         0.5         3.5
0.5         0.5        3.75
0.5         0.5           4
0.5         0.5        4.25
0.5         0.5         4.5
0.5         0.5        4.75
0.5         0.5           5
0.5         0.5        5.25
0.5         0.5         5.5
0.5         0.5        5.75
0.5         0.5           6
0.5         0.5        6.25
0.5         0.5         6.5
0.5         0.5        6.75
0.5         0.5           7
0.5         0.5        7.25
0.5         0.5         7.5
0.5         0.5        7.75
0.5         0.5           8
0.5         0.5        8.25
0.5         0.5         8.5
0.5         0.5        8.75
0.5         0.5           9
0.5         0.5        9.25
0.5         0.5         9.5
0.5         0.5        9.75
-0.5         0.5        0.25
-0.5         0.5         0.5
-0.5         0.5        0.75
-0.5         0.5           1
-0.5         0.5        1.25
-0.5         0.5         1.5
-0.5         0.5        1.75
-0.5         0.5           2
-0.5         0.5        2.25
-0.5         0.5         2.5
-0.5         0.5        2.75
-0.5         0.5           3
-0.5         0.5        3.25
-0.5         0.5         3.5
-0.5         0.5        3.75
-0.5         0.5           4
-0.5         0.5        4.25
-0.5         0.5         4.5
-0.5         0.5        4.75
-0.5         0.5           5
-0.5         0.5        5.25
-0.5         0.5         5.5
-0.5         0.5        5.75
-0.5         0.5           6
-0.5         0.5        6.25
-0.5         0.5         6.5
-0.5         0.5        6.75
-0.5         0.5           7
-0.5         0.5        7.25
-0.5         0.5         7.5
-0.5         0.5        7.75
-0.5         0.5           8
-0.5         0.5        8.25
-0.5         0.5         8.5
-0.5         0.5        8.75
-0.5         0.5           9
-0.5         0.5        9.25
-0.5         0.5         9.5
-0.5         0.5        9.75
-0.25       -0.25           0
-0.25  6.8756e-13           0
-0.25        0.25           0
-6.8756e-13       -0.25           0
-3.7821e-24           0           0
6.8756e-13        0.25           0
0.25       -0.25           0
0.25 -6.8756e-13           0
0.25        0.25           0
-0.25        -0.5        0.25
-0.25        -0.5         0.5
-0.25        -0.5        0.75
-0.25        -0.5           1
-0.25        -0.5        1.25
-0.25        -0.5         1.5
-0.25        -0.5        1.75
-0.25        -0.5           2
-0.25        -0.5        2.25
-0.25        -0.5         2.5
-0.25        -0.5        2.75
-0.25        -0.5           3
-0.25        -0.5        3.25
-0.25        -0.5         3.5
-0.25        -0.5        3.75
-0.25        -0.5           4
-0.25        -0.5        4.25
-0.25        -0.5         4.5
-0.25        -0.5        4.75
-0.25        -0.5           5
-0.25        -0.5        5.25
-0.25        -0.5         5.5
-0.25        -0.5        5.75
-0.25        -0.5           6
-0.25        -0.5        6.25
-0.25        -0.5         6.5
-0.25        -0.5        6.75
-0.25        -0.5           7
-0.25        -0.5        7.25
-0.25        -0.5         7.5
-0.25        -0.5        7.75
-0.25        -0.5           8
-0.25        -0.5        8.25
-0.25        -0.5         8.5
-0.25        -0.5        8.75
-0.25        -0.5           9
-0.25        -0.5        9.25
-0.25        -0.5         9.5
-0.25        -0.5        9.75
-1.3751e-12        -0.5        0.25
-1.3751e-12        -0.5         0.5
-1.3751e-12        -0.5        0.75
-1.3751e-12        -0.5           1
-1.3751e-12        -0.5        1.25
-1.3751e-12        -0.5         1.5
-1.3751e-12        -0.5        1.75
-1.3751e-12        -0.5           2
-1.3751e-12        -0.5        2.25
-1.3751e-12        -0.5         2.5
-1.3751e-12        -0.5        2.75
-1.3751e-12        -0.5           3
-1.3751e-12        -0.5        3.25
-1.3751e-12        -0.5         3.5
-1.3751e-12        -0.5        3.75
-1.3751e-12        -0.5           4
-1.3751e-12        -0.5        4.25
-1.3751e-12        -0.5         4.5
-1.3751e-12        -0.5        4.75
-1.3751e-12        -0.5           5
-1.3751e-12        -0.5        5.25
-1.3751e-12        -0.5         5.5
-1.3751e-12        -0.5        5.75
-1.3751e-12        -0.5           6
-1.3751e-12        -0.5        6.25
-1.3751e-12        -0.5         6.5
-1.3751e-12        -0.5        6.75
-1.3751e-12        -0.5           7
-1.3751e-12        -0.5        7.25
-1.3751e-12        -0.5         7.5
-1.3751e-12        -0.5        7.75
-1.3751e-12        -0.5           8
-1.3751e-12        -0.5        8.25
-1.3751e-12        -0.5         8.5
-1.3751e-12        -0.5        8.75
-1.3751e-12        -0.5           9
-1.3751e-12        -0.5        9.25
-1.3751e-12        -0.5         9.5
-1.3751e-12        -0.5        9.75
0.25        -0.5        0.25
0.25        -0.5         0.5
0.25        -0.5        0.75
0.25        -0.5           1
0.25        -0.5        1.25
0.25        -0.5         1.5
0.25        -0.5        1.75
0.25        -0.5           2
0.25        -0.5        2.25
0.25        -0.5         2.5
0.25        -0.5        2.75
0.25        -0.5           3
0.25        -0.5        3.25
0.25        -0.5         3.5
0.25        -0.5        3.75
0.25        -0.5           4
0.25        -0.5        4.25
0.25        -0.5         4.5
0.25        -0.5        4.75
0.25        -0.5           5
0.25        -0.5        5.25
0.25        -0.5         5.5
0.25        -0.5        5.75
0.25        -0.5           6
0.25        -0.5        6.25
0.25        -0.5         6.5
0.25        -0.5        6.75
0.25        -0.5           7
0.25        -0.5        7.25
0.25        -0.5         7.5
0.25        -0.5        7.75
0.25        -0.5           8
0.25        -0.5        8.25
0.25        -0.5         8.5
0.25        -0.5        8.75
0.25        -0.5           9
0.25        -0.5        9.25
0.25        -0.5         9.5
0.25        -0.5        9.75
0.5       -0.25        0.25
0.5       -0.25         0.5
0.5       -0.25        0.75
0.5       -0.25           1
0.5       -0.25        1.25
0.5       -0.25         1.5
0.5       -0.25        1.75
0.5       -0.25           2
0.5       -0.25        2.25
0.5       -0.25         2.5
0.5       -0.25        2.75
0.5       -0.25           3
0.5       -0.25        3.25
0.5       -0.25         3.5
0.5       -0.25        3.75
0.5       -0.25           4
0.5       -0.25        4.25
[...]
POINT_DATA 1025
VECTORS displacement double
0  0  0
0  0  0
0  0  0
0  0  0
-0.087938     0.89285    -0.64066
-0.89285   -0.087938    -0.64066
0.087938    -0.89285    -0.64066
0.89285    0.087938    -0.64066
0  0  0
0  0  0
0  0  0
0  0  0
0  0  0
0  0  0
0  0  0
0  0  0
0  0  0
0  0  0
0  0  0
0  0  0
-0.28917     0.64765    -0.65013
-0.49039     0.40245    -0.59439
-0.69162     0.15726    -0.55645
-0.64765    -0.28917    -0.65013
-0.40245    -0.49039    -0.59439
-0.15726    -0.69162    -0.55645
0.28917    -0.64765    -0.65013
0.49039    -0.40245    -0.59439
0.69162    -0.15726    -0.55645
0.64765     0.28917    -0.65013
0.40245     0.49039    -0.59439
0.15726     0.69162    -0.55645
0.13999   -0.075972  -0.0035701
0.31237    -0.14572   -0.021636
0.49971    -0.16963   -0.039589
0.68646    -0.14314   -0.055657
0.8576   -0.066807   -0.070088
1.0002    0.053444   -0.083768
1.1038     0.20819    -0.09731
1.1608     0.38548    -0.11091
1.1668     0.57164    -0.12457
1.1213     0.75229    -0.13826
1.028     0.91348    -0.15195
0.89384      1.0428    -0.16563
0.72933      1.1302    -0.17932
0.54713       1.169    -0.19301
0.36128      1.1561    -0.20669
0.18614      1.0926    -0.22038
0.035223     0.98342    -0.23406
-0.079833     0.83691    -0.24775
-0.15014     0.66441    -0.26144
-0.17029     0.47921    -0.27512
-0.13871     0.29562    -0.28881
-0.057839      0.1278    -0.30249
0.066075   -0.011298    -0.31618
0.22347    -0.11094    -0.32987
0.40221    -0.16344    -0.34355
0.58849    -0.16475    -0.35724
0.76794    -0.11475    -0.37092
0.92672   -0.017323    -0.38461
1.0526     0.12003    -0.39829
1.1358     0.28672    -0.41199
1.1699     0.46988    -0.42571
1.1524     0.65533    -0.43944
1.0847     0.82873    -0.45306
0.97223     0.97664    -0.46632
0.82338      1.0875    -0.47897
0.64825      1.1522    -0.49159
0.45698      1.1628    -0.50756
0.26143      1.1147    -0.53502
0.077696      1.0135    -0.58016
0.075972     0.13999  -0.0035701
0.14572     0.31237   -0.021636
0.16963     0.49971   -0.039589
0.14314     0.68646   -0.055657
0.066807      0.8576   -0.070088
-0.053444      1.0002   -0.083768
-0.20819      1.1038    -0.09731
-0.38548      1.1608    -0.11091
-0.57164      1.1668    -0.12457
-0.75229      1.1213    -0.13826
-0.91348       1.028    -0.15195
-1.0428     0.89384    -0.16563
-1.1302     0.72933    -0.17932
-1.169     0.54713    -0.19301
-1.1561     0.36128    -0.20669
-1.0926     0.18614    -0.22038
-0.98342    0.035223    -0.23406
-0.83691   -0.079833    -0.24775
-0.66441    -0.15014    -0.26144
-0.47921    -0.17029    -0.27512
-0.29562    -0.13871    -0.28881
-0.1278   -0.057839    -0.30249
0.011298    0.066075    -0.31618
0.11094     0.22347    -0.32987
0.16344     0.40221    -0.34355
0.16475     0.58849    -0.35724
0.11475     0.76794    -0.37092
0.017323     0.92672    -0.38461
-0.12003      1.0526    -0.39829
-0.28672      1.1358    -0.41199
-0.46988      1.1699    -0.42571
-0.65533      1.1524    -0.43944
-0.82873      1.0847    -0.45306
-0.97664     0.97223    -0.46632
-1.0875     0.82338    -0.47897
-1.1522     0.64825    -0.49159
-1.1628     0.45698    -0.50756
-1.1147     0.26143    -0.53502
-1.0135    0.077696    -0.58016
-0.13999    0.075972  -0.0035701
-0.31237     0.14572   -0.021636
-0.49971     0.16963   -0.039589
-0.68646     0.14314   -0.055657
-0.8576    0.066807   -0.070088
-1.0002   -0.053444   -0.083768
-1.1038    -0.20819    -0.09731
-1.1608    -0.38548    -0.11091
-1.1668    -0.57164    -0.12457
-1.1213    -0.75229    -0.13826
-1.028    -0.91348    -0.15195
-0.89384     -1.0428    -0.16563
-0.72933     -1.1302    -0.17932
-0.54713      -1.169    -0.19301
-0.36128     -1.1561    -0.20669
-0.18614     -1.0926    -0.22038
-0.035223    -0.98342    -0.23406
0.079833    -0.83691    -0.24775
0.15014    -0.66441    -0.26144
0.17029    -0.47921    -0.27512
0.13871    -0.29562    -0.28881
0.057839     -0.1278    -0.30249
-0.066075    0.011298    -0.31618
-0.22347     0.11094    -0.32987
-0.40221     0.16344    -0.34355
-0.58849     0.16475    -0.35724
-0.76794     0.11475    -0.37092
-0.92672    0.017323    -0.38461
-1.0526    -0.12003    -0.39829
-1.1358    -0.28672    -0.41199
-1.1699    -0.46988    -0.42571
-1.1524    -0.65533    -0.43944
-1.0847    -0.82873    -0.45306
-0.97223    -0.97664    -0.46632
-0.82338     -1.0875    -0.47897
-0.64825     -1.1522    -0.49159
-0.45698     -1.1628    -0.50756
-0.26143     -1.1147    -0.53502
-0.077696     -1.0135    -0.58016
-0.075972    -0.13999  -0.0035701
-0.14572    -0.31237   -0.021636
-0.16963    -0.49971   -0.039589
-0.14314    -0.68646   -0.055657
-0.066807     -0.8576   -0.070088
0.053444     -1.0002   -0.083768
0.20819     -1.1038    -0.09731
0.38548     -1.1608    -0.11091
0.57164     -1.1668    -0.12457
0.75229     -1.1213    -0.13826
0.91348      -1.028    -0.15195
1.0428    -0.89384    -0.16563
1.1302    -0.72933    -0.17932
1.169    -0.54713    -0.19301
1.1561    -0.36128    -0.20669
1.0926    -0.18614    -0.22038
0.98342   -0.035223    -0.23406
0.83691    0.079833    -0.24775
0.66441     0.15014    -0.26144
0.47921     0.17029    -0.27512
0.29562     0.13871    -0.28881
0.1278    0.057839    -0.30249
-0.011298   -0.066075    -0.31618
-0.11094    -0.22347    -0.32987
-0.16344    -0.40221    -0.34355
-0.16475    -0.58849    -0.35724
-0.11475    -0.76794    -0.37092
-0.017323    -0.92672    -0.38461
0.12003     -1.0526    -0.39829
0.28672     -1.1358    -0.41199
0.46988     -1.1699    -0.42571
0.65533     -1.1524    -0.43944
0.82873     -1.0847    -0.45306
0.97664    -0.97223    -0.46632
1.0875    -0.82338    -0.47897
1.1522    -0.64825    -0.49159
1.1628    -0.45698    -0.50756
1.1147    -0.26143    -0.53502
1.0135   -0.077696    -0.58016
0  0  0
0  0  0
0  0  0
0  0  0
0  0  0
0  0  0
0  0  0
0  0  0
0  0  0
0.1249   -0.025751   -0.043056
0.26822   -0.031375   -0.066323
0.41517  -0.0034939    -0.08366
0.54917    0.062519    -0.09844
0.65892     0.16206    -0.11215
0.73643     0.28761    -0.12567
0.77615     0.42953    -0.13924
0.77525     0.57692     -0.1529
0.73381     0.71842    -0.16658
0.65506     0.84307    -0.18027
0.54505     0.94127    -0.19396
0.41227      1.0054    -0.20765
0.26697      1.0305    -0.22134
0.12037      1.0147    -0.23502
-0.016235     0.95923    -0.24871
-0.13229     0.86827    -0.26239
-0.21885     0.74889    -0.27608
-0.26923     0.61031    -0.28976
-0.27954     0.46321    -0.30345
-0.24899     0.31896    -0.31714
-0.17994     0.18867    -0.33082
-0.077704    0.082411    -0.34451
0.049817   0.0083733    -0.35819
0.19278   -0.027728    -0.37188
0.34017   -0.023106    -0.38557
0.48059    0.021881    -0.39925
0.60322     0.10376    -0.41294
0.6986     0.21622    -0.42662
0.75935     0.35058    -0.44031
0.78079     0.49648    -0.45401
0.76127     0.64266    -0.46771
0.70234     0.77782     -0.4814
0.60868     0.89158      -0.495
0.48763     0.97523    -0.50841
0.34835      1.0222    -0.52163
0.20084      1.0275    -0.53536
0.055558     0.98688    -0.55204
-0.075832     0.89805    -0.57641
-0.18123     0.77506    -0.60668
0.11762    0.026002  -0.0079857
0.23198    0.078851   -0.023938
0.33909     0.16115    -0.04155
0.42074     0.26881   -0.056526
0.46891     0.39407   -0.070216
0.48021     0.52726   -0.083672
0.45424     0.65824   -0.097226
0.3932     0.77703    -0.11088
0.30183     0.87448    -0.12456
0.18716     0.94305    -0.13826
0.058058     0.97745    -0.15195
-0.075528       0.975    -0.16564
-0.20328     0.93589    -0.17932
-0.31535     0.86315    -0.19301
-0.40309     0.76239    -0.20669
-0.45972     0.64138    -0.22038
-0.48087     0.50946    -0.23406
-0.46492     0.37681    -0.24775
-0.41309     0.25366    -0.26144
-0.32939     0.14953    -0.27512
-0.22026    0.072435    -0.28881
-0.094145    0.028338    -0.30249
0.039239    0.020637    -0.31618
0.1696    0.049927    -0.32987
0.28687     0.11395    -0.34355
0.382     0.20776    -0.35724
0.44765     0.32412    -0.37092
0.47877     0.45405    -0.38461
0.47293     0.58753    -0.39829
0.43059     0.71426    -0.41198
0.35501     0.82447    -0.42568
0.25206     0.90964    -0.43942
0.12975     0.96327    -0.45318
-0.0023374     0.98132     -0.4668
-0.13398     0.96242    -0.47985
-0.25514     0.90719    -0.49178
-0.35626     0.81711    -0.50298
-0.42906     0.69333    -0.51905
-0.46623     0.54521    -0.54922
0.099097    0.089047    0.020179
0.18866     0.20095    0.015909
0.25251     0.33514   0.0016357
0.27928     0.48169   -0.013446
0.26449     0.62913   -0.027793
0.20934     0.76605   -0.041613
0.11851     0.88216    -0.05526
-0.00079793     0.96874   -0.068899
-0.13934      1.0192   -0.082564
-0.28642      1.0296   -0.096246
-0.4307     0.99912    -0.10993
-0.56103     0.93015    -0.12362
-0.66736     0.82799    -0.13731
-0.74149     0.70052    -0.15099
-0.77769     0.55758    -0.16468
-0.77317     0.41019    -0.17836
-0.72828     0.26973    -0.19205
-0.64648     0.14705    -0.20574
-0.53408    0.051596    -0.21942
-0.39977  -0.0092536    -0.23311
-0.2539   -0.030806    -0.24679
-0.10772   -0.011398    -0.26048
0.027469    0.047472    -0.27417
0.14125     0.14126    -0.28785
0.22484     0.26274    -0.30154
0.27179     0.40252    -0.31522
0.27848     0.54982    -0.32891
0.24438     0.69328    -0.34259
0.17213     0.82182    -0.35628
0.067298     0.92554    -0.36997
-0.062029     0.99642    -0.38367
-0.20585       1.029     -0.3974
-0.35301      1.0209    -0.41112
-0.49204     0.97276    -0.42472
-0.6121     0.88831    -0.43789
-0.70365     0.77323    -0.45034
-0.75879     0.63362    -0.46295
-0.77129     0.47548    -0.47971
-0.74055     0.30632    -0.51276
0.025751      0.1249   -0.043056
0.031375     0.26822   -0.066323
0.0034939     0.41517    -0.08366
-0.062519     0.54917    -0.09844
-0.16206     0.65892    -0.11215
-0.28761     0.73643    -0.12567
-0.42953     0.77615    -0.13924
-0.57692     0.77525     -0.1529
-0.71842     0.73381    -0.16658
-0.84307     0.65506    -0.18027
-0.94127     0.54505    -0.19396
-1.0054     0.41227    -0.20765
-1.0305     0.26697    -0.22134
-1.0147     0.12037    -0.23502
-0.95923   -0.016235    -0.24871
-0.86827    -0.13229    -0.26239
-0.74889    -0.21885    -0.27608
-0.61031    -0.26923    -0.28976
-0.46321    -0.27954    -0.30345
-0.31896    -0.24899    -0.31714
-0.18867    -0.17994    -0.33082
-0.082411   -0.077704    -0.34451
-0.0083733    0.049817    -0.35819
0.027728     0.19278    -0.37188
0.023106     0.34017    -0.38557
-0.021881     0.48059    -0.39925
-0.10376     0.60322    -0.41294
-0.21622      0.6986    -0.42662
-0.35058     0.75935    -0.44031
-0.49648     0.78079    -0.45401
-0.64266     0.76127    -0.46771
-0.77782     0.70234     -0.4814
-0.89158     0.60868      -0.495
-0.97523     0.48763    -0.50841
-1.0222     0.34835    -0.52163
-1.0275     0.20084    -0.53536
-0.98688    0.055558    -0.55204
-0.89805   -0.075832    -0.57641
-0.77506    -0.18123    -0.60668
-0.026002     0.11762  -0.0079857
-0.078851     0.23198   -0.023938
-0.16115     0.33909    -0.04155
-0.26881     0.42074   -0.056526
-0.39407     0.46891   -0.070216
-0.52726     0.48021   -0.083672
-0.65824     0.45424   -0.097226
-0.77703      0.3932    -0.11088
-0.87448     0.30183    -0.12456
-0.94305     0.18716    -0.13826
-0.97745    0.058058    -0.15195
-0.975   -0.075528    -0.16564
-0.93589    -0.20328    -0.17932
-0.86315    -0.31535    -0.19301
-0.76239    -0.40309    -0.20669
-0.64138    -0.45972    -0.22038
-0.50946    -0.48087    -0.23406
-0.37681    -0.46492    -0.24775
-0.25366    -0.41309    -0.26144
-0.14953    -0.32939    -0.27512
-0.072435    -0.22026    -0.28881
-0.028338   -0.094145    -0.30249
-0.020637    0.039239    -0.31618
-0.049927      0.1696    -0.32987
-0.11395     0.28687    -0.34355
-0.20776       0.382    -0.35724
-0.32412     0.44765    -0.37092
-0.45405     0.47877    -0.38461
-0.58753     0.47293    -0.39829
-0.71426     0.43059    -0.41198
-0.82447     0.35501    -0.42568
-0.90964     0.25206    -0.43942
-0.96327     0.12975    -0.45318
-0.98132  -0.0023374     -0.4668
-0.96242    -0.13398    -0.47985
-0.90719    -0.25514    -0.49178
-0.81711    -0.35626    -0.50298
-0.69333    -0.42906    -0.51905
-0.54521    -0.46623    -0.54922
-0.089047    0.099097    0.020179
-0.20095     0.18866    0.015909
-0.33514     0.25251   0.0016357
-0.48169     0.27928   -0.013446
-0.62913     0.26449   -0.027793
-0.76605     0.20934   -0.041613
-0.88216     0.11851    -0.05526
-0.96874 -0.00079793   -0.068899
-1.0192    -0.13934   -0.082564
-1.0296    -0.28642   -0.096246
-0.99912     -0.4307    -0.10993
-0.93015    -0.56103    -0.12362
-0.82799    -0.66736    -0.13731
-0.70052    -0.74149    -0.15099
-0.55758    -0.77769    -0.16468
-0.41019    -0.77317    -0.17836
-0.26973    -0.72828    -0.19205
-0.14705    -0.64648    -0.20574
-0.051596    -0.53408    -0.21942
0.0092536    -0.39977    -0.23311
0.030806     -0.2539    -0.24679
0.011398    -0.10772    -0.26048
-0.047472    0.027469    -0.27417
-0.14126     0.14125    -0.28785
-0.26274     0.22484    -0.30154
-0.40252     0.27179    -0.31522
-0.54982     0.27848    -0.32891
-0.69328     0.24438    -0.34259
-0.82182     0.17213    -0.35628
-0.92554    0.067298    -0.36997
-0.99642   -0.062029    -0.38367
-1.029    -0.20585     -0.3974
-1.0209    -0.35301    -0.41112
-0.97276    -0.49204    -0.42472
-0.88831     -0.6121    -0.43789
-0.77323    -0.70365    -0.45034
-0.63362    -0.75879    -0.46295
-0.47548    -0.77129    -0.47971
-0.30632    -0.74055    -0.51276
-0.1249    0.025751   -0.043056
-0.26822    0.031375   -0.066323
-0.41517   0.0034939    -0.08366
-0.54917   -0.062519    -0.09844
-0.65892    -0.16206    -0.11215
-0.73643    -0.28761    -0.12567
-0.77615    -0.42953    -0.13924
-0.77525    -0.57692     -0.1529
-0.73381    -0.71842    -0.16658
-0.65506    -0.84307    -0.18027
-0.54505    -0.94127    -0.19396
-0.41227     -1.0054    -0.20765
-0.26697     -1.0305    -0.22134
-0.12037     -1.0147    -0.23502
0.016235    -0.95923    -0.24871
0.13229    -0.86827    -0.26239
0.21885    -0.74889    -0.27608
0.26923    -0.61031    -0.28976
0.27954    -0.46321    -0.30345
0.24899    -0.31896    -0.31714
0.17994    -0.18867    -0.33082
0.077704   -0.082411    -0.34451
-0.049817  -0.0083733    -0.35819
-0.19278    0.027728    -0.37188
-0.34017    0.023106    -0.38557
-0.48059   -0.021881    -0.39925
-0.60322    -0.10376    -0.41294
-0.6986    -0.21622    -0.42662
-0.75935    -0.35058    -0.44031
-0.78079    -0.49648    -0.45401
-0.76127    -0.64266    -0.46771
-0.70234    -0.77782     -0.4814
-0.60868    -0.89158      -0.495
-0.48763    -0.97523    -0.50841
-0.34835     -1.0222    -0.52163
-0.20084     -1.0275    -0.53536
-0.055558    -0.98688    -0.55204
0.075832    -0.89805    -0.57641
0.18123    -0.77506    -0.60668
-0.11762   -0.026002  -0.0079857
-0.23198   -0.078851   -0.023938
-0.33909    -0.16115    -0.04155
-0.42074    -0.26881   -0.056526
-0.46891    -0.39407   -0.070216
-0.48021    -0.52726   -0.083672
-0.45424    -0.65824   -0.097226
-0.3932    -0.77703    -0.11088
-0.30183    -0.87448    -0.12456
-0.18716    -0.94305    -0.13826
-0.058058    -0.97745    -0.15195
0.075528      -0.975    -0.16564
0.20328    -0.93589    -0.17932
0.31535    -0.86315    -0.19301
0.40309    -0.76239    -0.20669
0.45972    -0.64138    -0.22038
0.48087    -0.50946    -0.23406
0.46492    -0.37681    -0.24775
0.41309    -0.25366    -0.26144
0.32939    -0.14953    -0.27512
0.22026   -0.072435    -0.28881
0.094145   -0.028338    -0.30249
-0.039239   -0.020637    -0.31618
-0.1696   -0.049927    -0.32987
-0.28687    -0.11395    -0.34355
-0.382    -0.20776    -0.35724
-0.44765    -0.32412    -0.37092
-0.47877    -0.45405    -0.38461
-0.47293    -0.58753    -0.39829
-0.43059    -0.71426    -0.41198
-0.35501    -0.82447    -0.42568
-0.25206    -0.90964    -0.43942
-0.12975    -0.96327    -0.45318
0.0023374    -0.98132     -0.4668
0.13398    -0.96242    -0.47985
0.25514    -0.90719    -0.49178
0.35626    -0.81711    -0.50298
0.42906    -0.69333    -0.51905
0.46623    -0.54521    -0.54922
-0.099097   -0.089047    0.020179
-0.18866    -0.20095    0.015909
-0.25251    -0.33514   0.0016357
-0.27928    -0.48169   -0.013446
-0.26449    -0.62913   -0.027793
-0.20934    -0.76605   -0.041613
-0.11851    -0.88216    -0.05526
0.00079793    -0.96874   -0.068899
0.13934     -1.0192   -0.082564
0.28642     -1.0296   -0.096246
0.4307    -0.99912    -0.10993
0.56103    -0.93015    -0.12362
0.66736    -0.82799    -0.13731
0.74149    -0.70052    -0.15099
0.77769    -0.55758    -0.16468
0.77317    -0.41019    -0.17836
0.72828    -0.26973    -0.19205
0.64648    -0.14705    -0.20574
0.53408   -0.051596    -0.21942
0.39977   0.0092536    -0.23311
0.2539    0.030806    -0.24679
0.10772    0.011398    -0.26048
-0.027469   -0.047472    -0.27417
-0.14125    -0.14126    -0.28785
-0.22484    -0.26274    -0.30154
-0.27179    -0.40252    -0.31522
-0.27848    -0.54982    -0.32891
-0.24438    -0.69328    -0.34259
-0.17213    -0.82182    -0.35628
-0.067298    -0.92554    -0.36997
0.062029    -0.99642    -0.38367
0.20585      -1.029     -0.3974
0.35301     -1.0209    -0.41112
0.49204    -0.97276    -0.42472
0.6121    -0.88831    -0.43789
0.70365    -0.77323    -0.45034
0.75879    -0.63362    -0.46295
0.77129    -0.47548    -0.47971
0.74055    -0.30632    -0.51276
-0.025751     -0.1249   -0.043056
-0.031375    -0.26822   -0.066323
-0.0034939    -0.41517    -0.08366
0.062519    -0.54917    -0.09844
0.16206    -0.65892    -0.11215
0.28761    -0.73643    -0.12567
0.42953    -0.77615    -0.13924
0.57692    -0.77525     -0.1529
0.71842    -0.73381    -0.16658
0.84307    -0.65506    -0.18027
0.94127    -0.54505    -0.19396
1.0054    -0.41227    -0.20765
1.0305    -0.26697    -0.22134
1.0147    -0.12037    -0.23502
0.95923    0.016235    -0.24871
0.86827     0.13229    -0.26239
0.74889     0.21885    -0.27608
0.61031     0.26923    -0.28976
0.46321     0.27954    -0.30345
0.31896     0.24899    -0.31714
0.18867     0.17994    -0.33082
0.082411    0.077704    -0.34451
0.0083733   -0.049817    -0.35819
-0.027728    -0.19278    -0.37188
-0.023106    -0.34017    -0.38557
0.021881    -0.48059    -0.39925
0.10376    -0.60322    -0.41294
0.21622     -0.6986    -0.42662
0.35058    -0.75935    -0.44031
0.49648    -0.78079    -0.45401
0.64266    -0.76127    -0.46771
0.77782    -0.70234     -0.4814
0.89158    -0.60868      -0.495
0.97523    -0.48763    -0.50841
1.0222    -0.34835    -0.52163
1.0275    -0.20084    -0.53536
0.98688   -0.055558    -0.55204
0.89805    0.075832    -0.57641
0.77506     0.18123    -0.60668
0.026002    -0.11762  -0.0079857
0.078851    -0.23198   -0.023938
0.16115    -0.33909    -0.04155
0.26881    -0.42074   -0.056526
0.39407    -0.46891   -0.070216
0.52726    -0.48021   -0.083672
0.65824    -0.45424   -0.097226
0.77703     -0.3932    -0.11088
0.87448    -0.30183    -0.12456
0.94305    -0.18716    -0.13826
0.97745   -0.058058    -0.15195
0.975    0.075528    -0.16564
0.93589     0.20328    -0.17932
0.86315     0.31535    -0.19301
0.76239     0.40309    -0.20669
0.64138     0.45972    -0.22038
0.50946     0.48087    -0.23406
0.37681     0.46492    -0.24775
0.25366     0.41309    -0.26144
0.14953     0.32939    -0.27512
0.072435     0.22026    -0.28881
0.028338    0.094145    -0.30249
0.020637   -0.039239    -0.31618
0.049927     -0.1696    -0.32987
0.11395    -0.28687    -0.34355
0.20776      -0.382    -0.35724
0.32412    -0.44765    -0.37092
0.45405    -0.47877    -0.38461
0.58753    -0.47293    -0.39829
0.71426    -0.43059    -0.41198
0.82447    -0.35501    -0.42568
0.90964    -0.25206    -0.43942
0.96327    -0.12975    -0.45318
0.98132   0.0023374     -0.4668
0.96242     0.13398    -0.47985
0.90719     0.25514    -0.49178
0.81711     0.35626    -0.50298
0.69333     0.42906    -0.51905
0.54521     0.46623    -0.54922
0.089047   -0.099097    0.020179
0.20095    -0.18866    0.015909
0.33514    -0.25251   0.0016357
0.48169    -0.27928   -0.013446
0.62913    -0.26449   -0.027793
0.76605    -0.20934   -0.041613