# vtk DataFile Version 3.0
VTK Output
ASCII
DATASET UNSTRUCTURED_GRID

POINTS 1025 float
-0.5        -0.5           0
0.5        -0.5           0
0.5         0.5           0
-0.5         0.5           0
-0.5         -0.5           10
0.5         -0.5           10
0.5          0.5           10
-0.5          0.5           10
-0.25        -0.5           0
-1.3751e-12        -0.5           0
0.25        -0.5           0
0.5       -0.25           0
0.5 -1.3751e-12           0
0.5        0.25           0
0.25         0.5           0
1.3751e-12         0.5           0
-0.25         0.5           0
-0.5        0.25           0
-0.5  1.3751e-12           0
-0.5       -0.25           0
-0.25         -0.5           10
-1.37512e-12         -0.5           10
0.25         -0.5           10
0.5        -0.25           10
0.5 -1.37512e-12           10
0.5         0.25           10
0.25          0.5           10
1.37512e-12          0.5           10
-0.25          0.5           10
-0.5         0.25           10
-0.5  1.37512e-12           10
-0.5        -0.25           10
-0.5        -0.5        0.25
-0.5        -0.5         0.5
-0.5        -0.5        0.75
-0.5        -0.5           1
-0.5        -0.5        1.25
-0.5        -0.5         1.5
-0.5        -0.5        1.75
-0.5        -0.5           2
-0.5        -0.5        2.25
-0.5        -0.5         2.5
-0.5        -0.5        2.75
-0.5        -0.5           3
-0.5        -0.5        3.25
-0.5        -0.5         3.5
-0.5        -0.5        3.75
-0.5        -0.5           4
-0.5        -0.5        4.25
-0.5        -0.5         4.5
-0.5        -0.5        4.75
-0.5        -0.5           5
-0.5        -0.5        5.25
-0.5        -0.5         5.5
-0.5        -0.5        5.75
-0.5        -0.5           6
-0.5        -0.5        6.25
-0.5        -0.5         6.5
-0.5        -0.5        6.75
-0.5        -0.5           7
-0.5        -0.5        7.25
-0.5        -0.5         7.5
-0.5        -0.5        7.75
-0.5        -0.5           8
-0.5        -0.5        8.25
-0.5        -0.5         8.5
-0.5        -0.5        8.75
-0.5        -0.5           9
-0.5        -0.5        9.25
-0.5        -0.5         9.5
-0.5        -0.5        9.75
0.5        -0.5        0.25
0.5        -0.5         0.5
0.5        -0.5        0.75
0.5        -0.5           1
0.5        -0.5        1.25
0.5        -0.5         1.5
0.5        -0.5        1.75
0.5        -0.5           2
0.5        -0.5        2.25
0.5        -0.5         2.5
0.5        -0.5        2.75
0.5        -0.5           3
0.5        -0.5        3.25
0.5        -0.5         3.5
0.5        -0.5        3.75
0.5        -0.5           4
0.5        -0.5        4.25
0.5        -0.5         4.5
0.5        -0.5        4.75
0.5        -0.5           5
0.5        -0.5        5.25
0.5        -0.5         5.5
0.5        -0.5        5.75
0.5        -0.5           6
0.5        -0.5        6.25
0.5        -0.5         6.5
0.5        -0.5        6.75
0.5        -0.5           7
0.5        -0.5        7.25
0.5        -0.5         7.5
0.5        -0.5        7.75
0.5        -0.5           8
0.5        -0.5        8.25
0.5        -0.5         8.5
0.5        -0.5        8.75
0.5        -0.5           9
0.5        -0.5        9.25
0.5        -0.5         9.5
0.5        -0.5        9.75
0.5         0.5        0.25
0.5         0.5         0.5
0.5         0.5        0.75
0.5         0.5           1
0.5         0.5        1.25
0.5         0.5         1.5
0.5         0.5        1.75
0.5         0.5           2
0.5         0.5        2.25
0.5         0.5         2.5
0.5         0.5        2.75
0.5         0.5           3
0.5         0.5        3.25
0.5         0.5         3.5
0.5         0.5        3.75
0.5         0.5           4
0.5         0.5        4.25
0.5         0.5         4.5
0.5         0.5        4.75
0.5         0.5           5
0.5         0.5        5.25
0.5         0.5         5.5
0.5         0.5        5.75
0.5         0.5           6
0.5         0.5        6.25
0.5         0.5         6.5
0.5         0.5        6.75
0.5         0.5           7
0.5         0.5        7.25
0.5         0.5         7.5
0.5         0.5        7.75
0.5         0.5           8
0.5         0.5        8.25
0.5         0.5         8.5
0.5         0.5        8.75
0.5         0.5           9
0.5         0.5        9.25
0.5         0.5         9.5
0.5         0.5        9.75
-0.5         0.5        0.25
-0.5         0.5         0.5
-0.5         0.5        0.75
-0.5         0.5           1
-0.5         0.5        1.25
-0.5         0.5         1.5
-0.5         0.5        1.75
-0.5         0.5           2
-0.5         0.5        2.25
-0.5         0.5         2.5
-0.5         0.5        2.75
-0.5         0.5           3
-0.5         0.5        3.25
-0.5         0.5         3.5
-0.5         0.5        3.75
-0.5         0.5           4
-0.5         0.5        4.25
-0.5         0.5         4.5
-0.5         0.5        4.75
-0.5         0.5           5
-0.5         0.5        5.25
-0.5         0.5         5.5
-0.5         0.5        5.75
-0.5         0.5           6
-0.5         0.5        6.25
-0.5         0.5         6.5
-0.5         0.5        6.75
-0.5         0.5           7
-0.5         0.5        7.25
-0.5         0.5         7.5
-0.5         0.5        7.75
-0.5         0.5           8
-0.5         0.5        8.25
-0.5         0.5         8.5
-0.5         0.5        8.75
-0.5         0.5           9
-0.5         0.5        9.25
-0.5         0.5         9.5
-0.5         0.5        9.75
-0.25       -0.25           0
-0.25  6.8756e-13           0
-0.25        0.25           0
-6.8756e-13       -0.25           0
-3.7821e-24           0           0
6.8756e-13        0.25           0
0.25       -0.25           0
0.25 -6.8756e-13           0
0.25        0.25           0
-0.25        -0.5        0.25
-0.25        -0.5         0.5
-0.25        -0.5        0.75
-0.25        -0.5           1
-0.25        -0.5        1.25
-0.25        -0.5         1.5
-0.25        -0.5        1.75
-0.25        -0.5           2
-0.25        -0.5        2.25
-0.25        -0.5         2.5
-0.25        -0.5        2.75
-0.25        -0.5           3
-0.25        -0.5        3.25
-0.25        -0.5         3.5
-0.25        -0.5        3.75
-0.25        -0.5           4
-0.25        -0.5        4.25
-0.25        -0.5         4.5
-0.25        -0.5        4.75
-0.25        -0.5           5
-0.25        -0.5        5.25
-0.25        -0.5         5.5
-0.25        -0.5        5.75
-0.25        -0.5           6
-0.25        -0.5        6.25
-0.25        -0.5         6.5
-0.25        -0.5        6.75
-0.25        -0.5           7
-0.25        -0.5        7.25
-0.25        -0.5         7.5
-0.25        -0.5        7.75
-0.25        -0.5           8
-0.25        -0.5        8.25
-0.25        -0.5         8.5
-0.25        -0.5        8.75
-0.25        -0.5           9
-0.25        -0.5        9.25
-0.25        -0.5         9.5
-0.25        -0.5        9.75
-1.3751e-12        -0.5        0.25
-1.3751e-12        -0.5         0.5
-1.3751e-12        -0.5        0.75
-1.3751e-12        -0.5           1
-1.3751e-12        -0.5        1.25
-1.3751e-12        -0.5         1.5
-1.3751e-12        -0.5        1.75
-1.3751e-12        -0.5           2
-1.3751e-12        -0.5        2.25
-1.3751e-12        -0.5         2.5
-1.3751e-12        -0.5        2.75
-1.3751e-12        -0.5           3
-1.3751e-12        -0.5        3.25
-1.3751e-12        -0.5         3.5
-1.3751e-12        -0.5        3.75
-1.3751e-12        -0.5           4
-1.3751e-12        -0.5        4.25
-1.3751e-12        -0.5         4.5
-1.3751e-12        -0.5        4.75
-1.3751e-12        -0.5           5
-1.3751e-12        -0.5        5.25
-1.3751e-12        -0.5         5.5
-1.3751e-12        -0.5        5.75
-1.3751e-12        -0.5           6
-1.3751e-12        -0.5        6.25
-1.3751e-12        -0.5         6.5
-1.3751e-12        -0.5        6.75
-1.3751e-12        -0.5           7
-1.3751e-12        -0.5        7.25
-1.3751e-12        -0.5         7.5
-1.3751e-12        -0.5        7.75
-1.3751e-12        -0.5           8
-1.3751e-12        -0.5        8.25
-1.3751e-12        -0.5         8.5
-1.3751e-12        -0.5        8.75
-1.3751e-12        -0.5           9
-1.3751e-12        -0.5        9.25
-1.3751e-12        -0.5         9.5
-1.3751e-12        -0.5        9.75
0.25        -0.5        0.25
0.25        -0.5         0.5
0.25        -0.5        0.75
0.25        -0.5           1
0.25        -0.5        1.25
0.25        -0.5         1.5
0.25        -0.5        1.75
0.25        -0.5           2
0.25        -0.5        2.25
0.25        -0.5         2.5
0.25        -0.5        2.75
0.25        -0.5           3
0.25        -0.5        3.25
0.25        -0.5         3.5
0.25        -0.5        3.75
0.25        -0.5           4
0.25        -0.5        4.25
0.25        -0.5         4.5
0.25        -0.5        4.75
0.25        -0.5           5
0.25        -0.5        5.25
0.25        -0.5         5.5
0.25        -0.5        5.75
0.25        -0.5           6
0.25        -0.5        6.25
0.25        -0.5         6.5
0.25        -0.5        6.75
0.25        -0.5           7
0.25        -0.5        7.25
0.25        -0.5         7.5
0.25        -0.5        7.75
0.25        -0.5           8
0.25        -0.5        8.25
0.25        -0.5         8.5
0.25        -0.5        8.75
0.25        -0.5           9
0.25        -0.5        9.25
0.25        -0.5         9.5
0.25        -0.5        9.75
0.5       -0.25        0.25
0.5       -0.25         0.5
0.5       -0.25        0.75
0.5       -0.25           1
0.5       -0.25        1.25
0.5       -0.25         1.5
0.5       -0.25        1.75
0.5       -0.25           2
0.5       -0.25        2.25
0.5       -0.25         2.5
0.5       -0.25        2.75
0.5       -0.25           3
0.5       -0.25        3.25
0.5       -0.25         3.5
0.5       -0.25        3.75
0.5       -0.25           4
0.5       -0.25        4.25
[...]
POINT_DATA 1025
VECTORS displacement double
0  0  0
0  0  0
0  0  0
0  0  0
1.1935     0.63795   -0.035517
-0.63795      1.1935   -0.035517
-1.1935    -0.63795   -0.035517
0.63795     -1.1935   -0.035517
0  0  0
0  0  0
0  0  0
0  0  0
0  0  0
0  0  0
0  0  0
0  0  0
0  0  0
0  0  0
0  0  0
0  0  0
0.73565     0.77684   -0.043643
0.27779     0.91573   -0.033443
-0.18008      1.0546   -0.024283
-0.77684     0.73565   -0.043643
-0.91573     0.27779   -0.033443
-1.0546    -0.18008   -0.024283
-0.73565    -0.77684   -0.043643
-0.27779    -0.91573   -0.033443
0.18008     -1.0546   -0.024283
0.77684    -0.73565   -0.043643
0.91573    -0.27779   -0.033443
1.0546     0.18008   -0.024283
0.029815   -0.026024 -0.00033205
0.065629   -0.055767  -0.0015438
0.10239   -0.082523  -0.0024713
0.14045    -0.10675  -0.0033185
0.17994    -0.12848  -0.0041346
0.22074    -0.14765   -0.004936
0.26269    -0.16417  -0.0057345
0.3056    -0.17797  -0.0065333
0.34931      -0.189  -0.0073327
0.39363    -0.19722  -0.0081323
0.43838     -0.2026  -0.0089319
0.48339     -0.2051  -0.0097316
0.52847    -0.20472   -0.010531
0.57343    -0.20146   -0.011331
0.61809    -0.19534   -0.012131
0.66227    -0.18637    -0.01293
0.70578     -0.1746    -0.01373
0.74846    -0.16008    -0.01453
0.79012    -0.14286   -0.015329
0.83059    -0.12301   -0.016129
0.86972    -0.10062   -0.016929
0.90733   -0.075776   -0.017728
0.94328   -0.048579   -0.018528
0.97742   -0.019141   -0.019328
1.0096    0.012418   -0.020127
1.0397    0.045969   -0.020927
1.0676    0.081374   -0.021727
1.0932     0.11849   -0.022526
1.1164     0.15716   -0.023326
1.137     0.19724   -0.024126
1.155     0.23855   -0.024925
1.1704     0.28093   -0.025725
1.183      0.3242   -0.026523
1.1929     0.36819   -0.027317
1.1999     0.41272   -0.028105
1.204     0.45762   -0.028898
1.2052     0.50272   -0.029767
1.2035     0.54788   -0.030936
1.1993       0.593   -0.032742
0.026024    0.029815 -0.00033205
0.055767    0.065629  -0.0015438
0.082523     0.10239  -0.0024713
0.10675     0.14045  -0.0033185
0.12848     0.17994  -0.0041346
0.14765     0.22074   -0.004936
0.16417     0.26269  -0.0057345
0.17797      0.3056  -0.0065333
0.189     0.34931  -0.0073327
0.19722     0.39363  -0.0081323
0.2026     0.43838  -0.0089319
0.2051     0.48339  -0.0097316
0.20472     0.52847   -0.010531
0.20146     0.57343   -0.011331
0.19534     0.61809   -0.012131
0.18637     0.66227    -0.01293
0.1746     0.70578    -0.01373
0.16008     0.74846    -0.01453
0.14286     0.79012   -0.015329
0.12301     0.83059   -0.016129
0.10062     0.86972   -0.016929
0.075776     0.90733   -0.017728
0.048579     0.94328   -0.018528
0.019141     0.97742   -0.019328
-0.012418      1.0096   -0.020127
-0.045969      1.0397   -0.020927
-0.081374      1.0676   -0.021727
-0.11849      1.0932   -0.022526
-0.15716      1.1164   -0.023326
-0.19724       1.137   -0.024126
-0.23855       1.155   -0.024925
-0.28093      1.1704   -0.025725
-0.3242       1.183   -0.026523
-0.36819      1.1929   -0.027317
-0.41272      1.1999   -0.028105
-0.45762       1.204   -0.028898
-0.50272      1.2052   -0.029767
-0.54788      1.2035   -0.030936
-0.593      1.1993   -0.032742
-0.029815    0.026024 -0.00033205
-0.065629    0.055767  -0.0015438
-0.10239    0.082523  -0.0024713
-0.14045     0.10675  -0.0033185
-0.17994     0.12848  -0.0041346
-0.22074     0.14765   -0.004936
-0.26269     0.16417  -0.0057345
-0.3056     0.17797  -0.0065333
-0.34931       0.189  -0.0073327
-0.39363     0.19722  -0.0081323
-0.43838      0.2026  -0.0089319
-0.48339      0.2051  -0.0097316
-0.52847     0.20472   -0.010531
-0.57343     0.20146   -0.011331
-0.61809     0.19534   -0.012131
-0.66227     0.18637    -0.01293
-0.70578      0.1746    -0.01373
-0.74846     0.16008    -0.01453
-0.79012     0.14286   -0.015329
-0.83059     0.12301   -0.016129
-0.86972     0.10062   -0.016929
-0.90733    0.075776   -0.017728
-0.94328    0.048579   -0.018528
-0.97742    0.019141   -0.019328
-1.0096   -0.012418   -0.020127
-1.0397   -0.045969   -0.020927
-1.0676   -0.081374   -0.021727
-1.0932    -0.11849   -0.022526
-1.1164    -0.15716   -0.023326
-1.137    -0.19724   -0.024126
-1.155    -0.23855   -0.024925
-1.1704    -0.28093   -0.025725
-1.183     -0.3242   -0.026523
-1.1929    -0.36819   -0.027317
-1.1999    -0.41272   -0.028105
-1.204    -0.45762   -0.028898
-1.2052    -0.50272   -0.029767
-1.2035    -0.54788   -0.030936
-1.1993      -0.593   -0.032742
-0.026024   -0.029815 -0.00033205
-0.055767   -0.065629  -0.0015438
-0.082523    -0.10239  -0.0024713
-0.10675    -0.14045  -0.0033185
-0.12848    -0.17994  -0.0041346
-0.14765    -0.22074   -0.004936
-0.16417    -0.26269  -0.0057345
-0.17797     -0.3056  -0.0065333
-0.189    -0.34931  -0.0073327
-0.19722    -0.39363  -0.0081323
-0.2026    -0.43838  -0.0089319
-0.2051    -0.48339  -0.0097316
-0.20472    -0.52847   -0.010531
-0.20146    -0.57343   -0.011331
-0.19534    -0.61809   -0.012131
-0.18637    -0.66227    -0.01293
-0.1746    -0.70578    -0.01373
-0.16008    -0.74846    -0.01453
-0.14286    -0.79012   -0.015329
-0.12301    -0.83059   -0.016129
-0.10062    -0.86972   -0.016929
-0.075776    -0.90733   -0.017728
-0.048579    -0.94328   -0.018528
-0.019141    -0.97742   -0.019328
0.012418     -1.0096   -0.020127
0.045969     -1.0397   -0.020927
0.081374     -1.0676   -0.021727
0.11849     -1.0932   -0.022526
0.15716     -1.1164   -0.023326
0.19724      -1.137   -0.024126
0.23855      -1.155   -0.024925
0.28093     -1.1704   -0.025725
0.3242      -1.183   -0.026523
0.36819     -1.1929   -0.027317
0.41272     -1.1999   -0.028105
0.45762      -1.204   -0.028898
0.50272     -1.2052   -0.029767
0.54788     -1.2035   -0.030936
0.593     -1.1993   -0.032742
0  0  0
0  0  0
0  0  0
0  0  0
0  0  0
0  0  0
0  0  0
0  0  0
0  0  0
0.03045   -0.012853  -0.0085246
0.063198   -0.025294   -0.011196
0.097216   -0.036206   -0.012124
0.13182   -0.044875   -0.012924
0.16687   -0.051323   -0.013721
0.20226   -0.055511    -0.01452
0.23784   -0.057428   -0.015319
0.27348   -0.057066   -0.016118
0.30901   -0.054429   -0.016917
0.34431   -0.049526   -0.017717
0.37922   -0.042379   -0.018517
0.41361   -0.033016   -0.019316
0.44732   -0.021476   -0.020116
0.48023  -0.0078053   -0.020916
0.5122   0.0079397   -0.021715
0.5431    0.025695   -0.022515
0.5728    0.045387   -0.023315
0.60118    0.066937   -0.024114
0.62813    0.090256   -0.024914
0.65353     0.11525   -0.025714
0.67729     0.14181   -0.026513
0.6993     0.16984   -0.027313
0.71947     0.19922   -0.028113
0.73773     0.22982   -0.028912
0.75399     0.26153   -0.029712
0.76819     0.29421   -0.030512
0.78028     0.32774   -0.031311
0.7902     0.36196   -0.032111
0.79792     0.39676   -0.032911
0.80339     0.43197    -0.03371
0.80661     0.46746    -0.03451
0.80755     0.50308    -0.03531
0.80622     0.53869   -0.036109
0.80261     0.57415   -0.036906
0.79674      0.6093   -0.037701
0.78861       0.644   -0.038499
0.77821     0.67814   -0.039329
0.76555     0.71159   -0.040292
0.75095     0.74421   -0.041595
0.031273   0.0017029 -0.00069541
0.061133   0.0048157  -0.0015911
0.092482   0.0097468  -0.0025179
0.12364     0.01664   -0.003342
0.15428    0.025516  -0.0041383
0.18428    0.036338  -0.0049348
0.21352    0.049056  -0.0057334
0.24189    0.063617  -0.0065329
0.26928    0.079961  -0.0073326
0.29556    0.098021  -0.0081323
0.32063     0.11772   -0.008932
0.3444     0.13899  -0.0097316
0.36676     0.16172   -0.010531
0.38762     0.18584   -0.011331
0.4069     0.21125   -0.012131
0.42451     0.23783    -0.01293
0.44039     0.26549    -0.01373
0.45447      0.2941    -0.01453
0.4667     0.32355   -0.015329
0.47702     0.35372   -0.016129
0.48539      0.3845   -0.016929
0.49177     0.41574   -0.017728
0.49615     0.44733   -0.018528
0.4985     0.47913   -0.019328
0.49882     0.51102   -0.020127
0.4971     0.54286   -0.020927
0.49334     0.57453   -0.021727
0.48757     0.60589   -0.022526
0.47981     0.63682   -0.023326
0.47009     0.66719   -0.024126
0.45845     0.69688   -0.024925
0.44494     0.72577   -0.025725
0.42961     0.75373   -0.026525
0.41252     0.78066   -0.027324
0.39375     0.80643   -0.028119
0.37335     0.83095   -0.028902
0.35137     0.85409   -0.029664
0.32786     0.87574   -0.030451
0.30302       0.896   -0.031564
0.028906    0.016813     0.00691
0.058629    0.035561   0.0079474
0.087632    0.056329   0.0071197
0.11531    0.078806   0.0062638
0.14148       0.103   0.0054506
0.16605     0.12882   0.0046501
0.18891     0.15615    0.003851
0.20998      0.1849   0.0030517
0.22917     0.21492   0.0022522
0.2464     0.24612   0.0014525
0.26161     0.27835  0.00065287
0.27472     0.31148  -0.0001468
0.28569     0.34539 -0.00094647
0.29448     0.37992  -0.0017461
0.30104     0.41495  -0.0025458
0.30534     0.45033  -0.0033455
0.30738      0.4859  -0.0041451
0.30714     0.52154  -0.0049448
0.30463     0.55709  -0.0057445
0.29985      0.5924  -0.0065441
0.29283     0.62734  -0.0073438
0.28358     0.66175  -0.0081435
0.27216     0.69551  -0.0089431
0.2586     0.72847  -0.0097428
0.24297     0.76049   -0.010542
0.22532     0.79145   -0.011342
0.20573     0.82122   -0.012142
0.18428     0.84968   -0.012941
0.16106      0.8767   -0.013741
0.13615     0.90219   -0.014541
0.10967     0.92604   -0.015341
0.08172     0.94815    -0.01614
0.052415     0.96842   -0.016939
0.021874     0.98678   -0.017737
-0.0097784      1.0032   -0.018531
-0.042419      1.0174   -0.019321
-0.075927      1.0296   -0.020125
-0.1102      1.0395    -0.02103
-0.1452      1.0475   -0.022312
0.012853     0.03045  -0.0085246
0.025294    0.063198   -0.011196
0.036206    0.097216   -0.012124
0.044875     0.13182   -0.012924
0.051323     0.16687   -0.013721
0.055511     0.20226    -0.01452
0.057428     0.23784   -0.015319
0.057066     0.27348   -0.016118
0.054429     0.30901   -0.016917
0.049526     0.34431   -0.017717
0.042379     0.37922   -0.018517
0.033016     0.41361   -0.019316
0.021476     0.44732   -0.020116
0.0078053     0.48023   -0.020916
-0.0079397      0.5122   -0.021715
-0.025695      0.5431   -0.022515
-0.045387      0.5728   -0.023315
-0.066937     0.60118   -0.024114
-0.090256     0.62813   -0.024914
-0.11525     0.65353   -0.025714
-0.14181     0.67729   -0.026513
-0.16984      0.6993   -0.027313
-0.19922     0.71947   -0.028113
-0.22982     0.73773   -0.028912
-0.26153     0.75399   -0.029712
-0.29421     0.76819   -0.030512
-0.32774     0.78028   -0.031311
-0.36196      0.7902   -0.032111
-0.39676     0.79792   -0.032911
-0.43197     0.80339    -0.03371
-0.46746     0.80661    -0.03451
-0.50308     0.80755    -0.03531
-0.53869     0.80622   -0.036109
-0.57415     0.80261   -0.036906
-0.6093     0.79674   -0.037701
-0.644     0.78861   -0.038499
-0.67814     0.77821   -0.039329
-0.71159     0.76555   -0.040292
-0.74421     0.75095   -0.041595
-0.0017029    0.031273 -0.00069541
-0.0048157    0.061133  -0.0015911
-0.0097468    0.092482  -0.0025179
-0.01664     0.12364   -0.003342
-0.025516     0.15428  -0.0041383
-0.036338     0.18428  -0.0049348
-0.049056     0.21352  -0.0057334
-0.063617     0.24189  -0.0065329
-0.079961     0.26928  -0.0073326
-0.098021     0.29556  -0.0081323
-0.11772     0.32063   -0.008932
-0.13899      0.3444  -0.0097316
-0.16172     0.36676   -0.010531
-0.18584     0.38762   -0.011331
-0.21125      0.4069   -0.012131
-0.23783     0.42451    -0.01293
-0.26549     0.44039    -0.01373
-0.2941     0.45447    -0.01453
-0.32355      0.4667   -0.015329
-0.35372     0.47702   -0.016129
-0.3845     0.48539   -0.016929
-0.41574     0.49177   -0.017728
-0.44733     0.49615   -0.018528
-0.47913      0.4985   -0.019328
-0.51102     0.49882   -0.020127
-0.54286      0.4971   -0.020927
-0.57453     0.49334   -0.021727
-0.60589     0.48757   -0.022526
-0.63682     0.47981   -0.023326
-0.66719     0.47009   -0.024126
-0.69688     0.45845   -0.024925
-0.72577     0.44494   -0.025725
-0.75373     0.42961   -0.026525
-0.78066     0.41252   -0.027324
-0.80643     0.39375   -0.028119
-0.83095     0.37335   -0.028902
-0.85409     0.35137   -0.029664
-0.87574     0.32786   -0.030451
-0.896     0.30302   -0.031564
-0.016813    0.028906     0.00691
-0.035561    0.058629   0.0079474
-0.056329    0.087632   0.0071197
-0.078806     0.11531   0.0062638
-0.103     0.14148   0.0054506
-0.12882     0.16605   0.0046501
-0.15615     0.18891    0.003851
-0.1849     0.20998   0.0030517
-0.21492     0.22917   0.0022522
-0.24612      0.2464   0.0014525
-0.27835     0.26161  0.00065287
-0.31148     0.27472  -0.0001468
-0.34539     0.28569 -0.00094647
-0.37992     0.29448  -0.0017461
-0.41495     0.30104  -0.0025458
-0.45033     0.30534  -0.0033455
-0.4859     0.30738  -0.0041451
-0.52154     0.30714  -0.0049448
-0.55709     0.30463  -0.0057445
-0.5924     0.29985  -0.0065441
-0.62734     0.29283  -0.0073438
-0.66175     0.28358  -0.0081435
-0.69551     0.27216  -0.0089431
-0.72847      0.2586  -0.0097428
-0.76049     0.24297   -0.010542
-0.79145     0.22532   -0.011342
-0.82122     0.20573   -0.012142
-0.84968     0.18428   -0.012941
-0.8767     0.16106   -0.013741
-0.90219     0.13615   -0.014541
-0.92604     0.10967   -0.015341
-0.94815     0.08172    -0.01614
-0.96842    0.052415   -0.016939
-0.98678    0.021874   -0.017737
-1.0032  -0.0097784   -0.018531
-1.0174   -0.042419   -0.019321
-1.0296   -0.075927   -0.020125
-1.0395     -0.1102    -0.02103
-1.0475     -0.1452   -0.022312
-0.03045    0.012853  -0.0085246
-0.063198    0.025294   -0.011196
-0.097216    0.036206   -0.012124
-0.13182    0.044875   -0.012924
-0.16687    0.051323   -0.013721
-0.20226    0.055511    -0.01452
-0.23784    0.057428   -0.015319
-0.27348    0.057066   -0.016118
-0.30901    0.054429   -0.016917
-0.34431    0.049526   -0.017717
-0.37922    0.042379   -0.018517
-0.41361    0.033016   -0.019316
-0.44732    0.021476   -0.020116
-0.48023   0.0078053   -0.020916
-0.5122  -0.0079397   -0.021715
-0.5431   -0.025695   -0.022515
-0.5728   -0.045387   -0.023315
-0.60118   -0.066937   -0.024114
-0.62813   -0.090256   -0.024914
-0.65353    -0.11525   -0.025714
-0.67729    -0.14181   -0.026513
-0.6993    -0.16984   -0.027313
-0.71947    -0.19922   -0.028113
-0.73773    -0.22982   -0.028912
-0.75399    -0.26153   -0.029712
-0.76819    -0.29421   -0.030512
-0.78028    -0.32774   -0.031311
-0.7902    -0.36196   -0.032111
-0.79792    -0.39676   -0.032911
-0.80339    -0.43197    -0.03371
-0.80661    -0.46746    -0.03451
-0.80755    -0.50308    -0.03531
-0.80622    -0.53869   -0.036109
-0.80261    -0.57415   -0.036906
-0.79674     -0.6093   -0.037701
-0.78861      -0.644   -0.038499
-0.77821    -0.67814   -0.039329
-0.76555    -0.71159   -0.040292
-0.75095    -0.74421   -0.041595
-0.031273  -0.0017029 -0.00069541
-0.061133  -0.0048157  -0.0015911
-0.092482  -0.0097468  -0.0025179
-0.12364    -0.01664   -0.003342
-0.15428   -0.025516  -0.0041383
-0.18428   -0.036338  -0.0049348
-0.21352   -0.049056  -0.0057334
-0.24189   -0.063617  -0.0065329
-0.26928   -0.079961  -0.0073326
-0.29556   -0.098021  -0.0081323
-0.32063    -0.11772   -0.008932
-0.3444    -0.13899  -0.0097316
-0.36676    -0.16172   -0.010531
-0.38762    -0.18584   -0.011331
-0.4069    -0.21125   -0.012131
-0.42451    -0.23783    -0.01293
-0.44039    -0.26549    -0.01373
-0.45447     -0.2941    -0.01453
-0.4667    -0.32355   -0.015329
-0.47702    -0.35372   -0.016129
-0.48539     -0.3845   -0.016929
-0.49177    -0.41574   -0.017728
-0.49615    -0.44733   -0.018528
-0.4985    -0.47913   -0.019328
-0.49882    -0.51102   -0.020127
-0.4971    -0.54286   -0.020927
-0.49334    -0.57453   -0.021727
-0.48757    -0.60589   -0.022526
-0.47981    -0.63682   -0.023326
-0.47009    -0.66719   -0.024126
-0.45845    -0.69688   -0.024925
-0.44494    -0.72577   -0.025725
-0.42961    -0.75373   -0.026525
-0.41252    -0.78066   -0.027324
-0.39375    -0.80643   -0.028119
-0.37335    -0.83095   -0.028902
-0.35137    -0.85409   -0.029664
-0.32786    -0.87574   -0.030451
-0.30302      -0.896   -0.031564
-0.028906   -0.016813     0.00691
-0.058629   -0.035561   0.0079474
-0.087632   -0.056329   0.0071197
-0.11531   -0.078806   0.0062638
-0.14148      -0.103   0.0054506
-0.16605    -0.12882   0.0046501
-0.18891    -0.15615    0.003851
-0.20998     -0.1849   0.0030517
-0.22917    -0.21492   0.0022522
-0.2464    -0.24612   0.0014525
-0.26161    -0.27835  0.00065287
-0.27472    -0.31148  -0.0001468
-0.28569    -0.34539 -0.00094647
-0.29448    -0.37992  -0.0017461
-0.30104    -0.41495  -0.0025458
-0.30534    -0.45033  -0.0033455
-0.30738     -0.4859  -0.0041451
-0.30714    -0.52154  -0.0049448
-0.30463    -0.55709  -0.0057445
-0.29985     -0.5924  -0.0065441
-0.29283    -0.62734  -0.0073438
-0.28358    -0.66175  -0.0081435
-0.27216    -0.69551  -0.0089431
-0.2586    -0.72847  -0.0097428
-0.24297    -0.76049   -0.010542
-0.22532    -0.79145   -0.011342
-0.20573    -0.82122   -0.012142
-0.18428    -0.84968   -0.012941
-0.16106     -0.8767   -0.013741
-0.13615    -0.90219   -0.014541
-0.10967    -0.92604   -0.015341
-0.08172    -0.94815    -0.01614
-0.052415    -0.96842   -0.016939
-0.021874    -0.98678   -0.017737
0.0097784     -1.0032   -0.018531
0.042419     -1.0174   -0.019321
0.075927     -1.0296   -0.020125
0.1102     -1.0395    -0.02103
0.1452     -1.0475   -0.022312
-0.012853    -0.03045  -0.0085246
-0.025294   -0.063198   -0.011196
-0.036206   -0.097216   -0.012124
-0.044875    -0.13182   -0.012924
-0.051323    -0.16687   -0.013721
-0.055511    -0.20226    -0.01452
-0.057428    -0.23784   -0.015319
-0.057066    -0.27348   -0.016118
-0.054429    -0.30901   -0.016917
-0.049526    -0.34431   -0.017717
-0.042379    -0.37922   -0.018517
-0.033016    -0.41361   -0.019316
-0.021476    -0.44732   -0.020116
-0.0078053    -0.48023   -0.020916
0.0079397     -0.5122   -0.021715
0.025695     -0.5431   -0.022515
0.045387     -0.5728   -0.023315
0.066937    -0.60118   -0.024114
0.090256    -0.62813   -0.024914
0.11525    -0.65353   -0.025714
0.14181    -0.67729   -0.026513
0.16984     -0.6993   -0.027313
0.19922    -0.71947   -0.028113
0.22982    -0.73773   -0.028912
0.26153    -0.75399   -0.029712
0.29421    -0.76819   -0.030512
0.32774    -0.78028   -0.031311
0.36196     -0.7902   -0.032111
0.39676    -0.79792   -0.032911
0.43197    -0.80339    -0.03371
0.46746    -0.80661    -0.03451
0.50308    -0.80755    -0.03531
0.53869    -0.80622   -0.036109
0.57415    -0.80261   -0.036906
0.6093    -0.79674   -0.037701
0.644    -0.78861   -0.038499
0.67814    -0.77821   -0.039329
0.71159    -0.76555   -0.040292
0.74421    -0.75095   -0.041595
0.0017029   -0.031273 -0.00069541
0.0048157   -0.061133  -0.0015911
0.0097468   -0.092482  -0.0025179
0.01664    -0.12364   -0.003342
0.025516    -0.15428  -0.0041383
0.036338    -0.18428  -0.0049348
0.049056    -0.21352  -0.0057334
0.063617    -0.24189  -0.0065329
0.079961    -0.26928  -0.0073326
0.098021    -0.29556  -0.0081323
0.11772    -0.32063   -0.008932
0.13899     -0.3444  -0.0097316
0.16172    -0.36676   -0.010531
0.18584    -0.38762   -0.011331
0.21125     -0.4069   -0.012131
0.23783    -0.42451    -0.01293
0.26549    -0.44039    -0.01373
0.2941    -0.45447    -0.01453
0.32355     -0.4667   -0.015329
0.35372    -0.47702   -0.016129
0.3845    -0.48539   -0.016929
0.41574    -0.49177   -0.017728
0.44733    -0.49615   -0.018528
0.47913     -0.4985   -0.019328
0.51102    -0.49882   -0.020127
0.54286     -0.4971   -0.020927
0.57453    -0.49334   -0.021727
0.60589    -0.48757   -0.022526
0.63682    -0.47981   -0.023326
0.66719    -0.47009   -0.024126
0.69688    -0.45845   -0.024925
0.72577    -0.44494   -0.025725
0.75373    -0.42961   -0.026525
0.78066    -0.41252   -0.027324
0.80643    -0.39375   -0.028119
0.83095    -0.37335   -0.028902
0.85409    -0.35137   -0.029664
0.87574    -0.32786   -0.030451
0.896    -0.30302   -0.031564
0.016813   -0.028906     0.00691
0.035561   -0.058629   0.0079474
0.056329   -0.087632   0.0071197
0.078806    -0.11531   0.0062638
0.103    -0.14148   0.0054506
0.12882    -0.16605   0.0046501