# vtk DataFile Version 3.0
VTK Output
ASCII
DATASET UNSTRUCTURED_GRID

POINTS 1025 float
-0.5        -0.5           0
0.5        -0.5           0
0.5         0.5           0
-0.5         0.5           0
-0.5         -0.5           10
0.5         -0.5           10
0.5          0.5           10
-0.5          0.5           10
-0.25        -0.5           0
-1.3751e-12        -0.5           0
0.25        -0.5           0
0.5       -0.25           0
0.5 -1.3751e-12           0
0.5        0.25           0
0.25         0.5           0
1.3751e-12         0.5           0
-0.25         0.5           0
-0.5        0.25           0
-0.5  1.3751e-12           0
-0.5       -0.25           0
-0.25         -0.5           10
-1.37512e-12         -0.5           10
0.25         -0.5           10
0.5        -0.25           10
0.5 -1.37512e-12           10
0.5         0.25           10
0.25          0.5           10
1.37512e-12          0.5           10
-0.25          0.5           10
-0.5         0.25           10
-0.5  1.37512e-12           10
-0.5        -0.25           10
-0.5        -0.5        0.25
-0.5        -0.5         0.5
-0.5        -0.5        0.75
-0.5        -0.5           1
-0.5        -0.5        1.25
-0.5        -0.5         1.5
-0.5        -0.5        1.75
-0.5        -0.5           2
-0.5        -0.5        2.25
-0.5        -0.5         2.5
-0.5        -0.5        2.75
-0.5        -0.5           3
-0.5        -0.5        3.25
-0.5        -0.5         3.5
-0.5        -0.5        3.75
-0.5        -0.5           4
-0.5        -0.5        4.25
-0.5        -0.5         4.5
-0.5        -0.5        4.75
-0.5        -0.5           5
-0.5        -0.5        5.25
-0.5        -0.5         5.5
-0.5        -0.5        5.75
-0.5        -0.5           6
-0.5        -0.5        6.25
-0.5        -0.5         6.5
-0.5        -0.5        6.75
-0.5        -0.5           7
-0.5        -0.5        7.25
-0.5        -0.5         7.5
-0.5        -0.5        7.75
-0.5        -0.5           8
-0.5        -0.5        8.25
-0.5        -0.5         8.5
-0.5        -0.5        8.75
-0.5        -0.5           9
-0.5        -0.5        9.25
-0.5        -0.5         9.5
-0.5        -0.5        9.75
0.5        -0.5        0.25
0.5        -0.5         0.5
0.5        -0.5        0.75
0.5        -0.5           1
0.5        -0.5        1.25
0.5        -0.5         1.5
0.5        -0.5        1.75
0.5        -0.5           2
0.5        -0.5        2.25
0.5        -0.5         2.5
0.5        -0.5        2.75
0.5        -0.5           3
0.5        -0.5        3.25
0.5        -0.5         3.5
0.5        -0.5        3.75
0.5        -0.5           4
0.5        -0.5        4.25
0.5        -0.5         4.5
0.5        -0.5        4.75
0.5        -0.5           5
0.5        -0.5        5.25
0.5        -0.5         5.5
0.5        -0.5        5.75
0.5        -0.5           6
0.5        -0.5        6.25
0.5        -0.5         6.5
0.5        -0.5        6.75
0.5        -0.5           7
0.5        -0.5        7.25
0.5        -0.5         7.5
0.5        -0.5        7.75
0.5        -0.5           8
0.5        -0.5        8.25
0.5        -0.5         8.5
0.5        -0.5        8.75
0.5        -0.5           9
0.5        -0.5        9.25
0.5        -0.5         9.5
0.5        -0.5        9.75
0.5         0.5        0.25
0.5         0.5         0.5
0.5         0.5        0.75
0.5         0.5           1
0.5         0.5        1.25
0.5         0.5         1.5
0.5         0.5        1.75
0.5         0.5           2
0.5         0.5        2.25
0.5         0.5         2.5
0.5         0.5        2.75
0.5         0.5           3
0.5         0.5        3.25
0.5         0.5         3.5
0.5         0.5        3.75
0.5         0.5           4
0.5         0.5        4.25
0.5         0.5         4.5
0.5         0.5        4.75
0.5         0.5           5
0.5         0.5        5.25
0.5         0.5         5.5
0.5         0.5        5.75
0.5         0.5           6
0.5         0.5        6.25
0.5         0.5         6.5
0.5         0.5        6.75
0.5         0.5           7
0.5         0.5        7.25
0.5         0.5         7.5
0.5         0.5        7.75
0.5         0.5           8
0.5         0.5        8.25
0.5         0.5         8.5
0.5         0.5        8.75
0.5         0.5           9
0.5         0.5        9.25
0.5         0.5         9.5
0.5         0.5        9.75
-0.5         0.5        0.25
-0.5         0.5         0.5
-0.5         0.5        0.75
-0.5         0.5           1
-0.5         0.5        1.25
-0.5         0.5         1.5
-0.5         0.5        1.75
-0.5         0.5           2
-0.5         0.5        2.25
-0.5         0.5         2.5
-0.5         0.5        2.75
-0.5         0.5           3
-0.5         0.5        3.25
-0.5         0.5         3.5
-0.5         0.5        3.75
-0.5         0.5           4
-0.5         0.5        4.25
-0.5         0.5         4.5
-0.5         0.5        4.75
-0.5         0.5           5
-0.5         0.5        5.25
-0.5         0.5         5.5
-0.5         0.5        5.75
-0.5         0.5           6
-0.5         0.5        6.25
-0.5         0.5         6.5
-0.5         0.5        6.75
-0.5         0.5           7
-0.5         0.5        7.25
-0.5         0.5         7.5
-0.5         0.5        7.75
-0.5         0.5           8
-0.5         0.5        8.25
-0.5         0.5         8.5
-0.5         0.5        8.75
-0.5         0.5           9
-0.5         0.5        9.25
-0.5         0.5         9.5
-0.5         0.5        9.75
-0.25       -0.25           0
-0.25  6.8756e-13           0
-0.25        0.25           0
-6.8756e-13       -0.25           0
-3.7821e-24           0           0
6.8756e-13        0.25           0
0.25       -0.25           0
0.25 -6.8756e-13           0
0.25        0.25           0
-0.25        -0.5        0.25
-0.25        -0.5         0.5
-0.25        -0.5        0.75
-0.25        -0.5           1
-0.25        -0.5        1.25
-0.25        -0.5         1.5
-0.25        -0.5        1.75
-0.25        -0.5           2
-0.25        -0.5        2.25
-0.25        -0.5         2.5
-0.25        -0.5        2.75
-0.25        -0.5           3
-0.25        -0.5        3.25
-0.25        -0.5         3.5
-0.25        -0.5        3.75
-0.25        -0.5           4
-0.25        -0.5        4.25
-0.25        -0.5         4.5
-0.25        -0.5        4.75
-0.25        -0.5           5
-0.25        -0.5        5.25
-0.25        -0.5         5.5
-0.25        -0.5        5.75
-0.25        -0.5           6
-0.25        -0.5        6.25
-0.25        -0.5         6.5
-0.25        -0.5        6.75
-0.25        -0.5           7
-0.25        -0.5        7.25
-0.25        -0.5         7.5
-0.25        -0.5        7.75
-0.25        -0.5           8
-0.25        -0.5        8.25
-0.25        -0.5         8.5
-0.25        -0.5        8.75
-0.25        -0.5           9
-0.25        -0.5        9.25
-0.25        -0.5         9.5
-0.25        -0.5        9.75
-1.3751e-12        -0.5        0.25
-1.3751e-12        -0.5         0.5
-1.3751e-12        -0.5        0.75
-1.3751e-12        -0.5           1
-1.3751e-12        -0.5        1.25
-1.3751e-12        -0.5         1.5
-1.3751e-12        -0.5        1.75
-1.3751e-12        -0.5           2
-1.3751e-12        -0.5        2.25
-1.3751e-12        -0.5         2.5
-1.3751e-12        -0.5        2.75
-1.3751e-12        -0.5           3
-1.3751e-12        -0.5        3.25
-1.3751e-12        -0.5         3.5
-1.3751e-12        -0.5        3.75
-1.3751e-12        -0.5           4
-1.3751e-12        -0.5        4.25
-1.3751e-12        -0.5         4.5
-1.3751e-12        -0.5        4.75
-1.3751e-12        -0.5           5
-1.3751e-12        -0.5        5.25
-1.3751e-12        -0.5         5.5
-1.3751e-12        -0.5        5.75
-1.3751e-12        -0.5           6
-1.3751e-12        -0.5        6.25
-1.3751e-12        -0.5         6.5
-1.3751e-12        -0.5        6.75
-1.3751e-12        -0.5           7
-1.3751e-12        -0.5        7.25
-1.3751e-12        -0.5         7.5
-1.3751e-12        -0.5        7.75
-1.3751e-12        -0.5           8
-1.3751e-12        -0.5        8.25
-1.3751e-12        -0.5         8.5
-1.3751e-12        -0.5        8.75
-1.3751e-12        -0.5           9
-1.3751e-12        -0.5        9.25
-1.3751e-12        -0.5         9.5
-1.3751e-12        -0.5        9.75
0.25        -0.5        0.25
0.25        -0.5         0.5
0.25        -0.5        0.75
0.25        -0.5           1
0.25        -0.5        1.25
0.25        -0.5         1.5
0.25        -0.5        1.75
0.25        -0.5           2
0.25        -0.5        2.25
0.25        -0.5         2.5
0.25        -0.5        2.75
0.25        -0.5           3
0.25        -0.5        3.25
0.25        -0.5         3.5
0.25        -0.5        3.75
0.25        -0.5           4
0.25        -0.5        4.25
0.25        -0.5         4.5
0.25        -0.5        4.75
0.25        -0.5           5
0.25        -0.5        5.25
0.25        -0.5         5.5
0.25        -0.5        5.75
0.25        -0.5           6
0.25        -0.5        6.25
0.25        -0.5         6.5
0.25        -0.5        6.75
0.25        -0.5           7
0.25        -0.5        7.25
0.25        -0.5         7.5
0.25        -0.5        7.75
0.25        -0.5           8
0.25        -0.5        8.25
0.25        -0.5         8.5
0.25        -0.5        8.75
0.25        -0.5           9
0.25        -0.5        9.25
0.25        -0.5         9.5
0.25        -0.5        9.75
0.5       -0.25        0.25
0.5       -0.25         0.5
0.5       -0.25        0.75
0.5       -0.25           1
0.5       -0.25        1.25
0.5       -0.25         1.5
0.5       -0.25        1.75
0.5       -0.25           2
0.5       -0.25        2.25
0.5       -0.25         2.5
0.5       -0.25        2.75
0.5       -0.25           3
0.5       -0.25        3.25
0.5       -0.25         3.5
0.5       -0.25        3.75
0.5       -0.25           4
0.5       -0.25        4.25
[...]
POINT_DATA 1025
VECTORS displacement double
0  0  0
0  0  0
0  0  0
0  0  0
0.36205    -0.19352  -0.0018981
0.19352     0.36205  -0.0018981
-0.36205     0.19352  -0.0018981
-0.19352    -0.36205  -0.0018981
0  0  0
0  0  0
0  0  0
0  0  0
0  0  0
0  0  0
0  0  0
0  0  0
0  0  0
0  0  0
0  0  0
0  0  0
0.31992   -0.054627  -0.0040306
0.27779    0.084265  -0.0017887
0.23565     0.22316  0.00039805
0.054627     0.31992  -0.0040306
-0.084265     0.27779  -0.0017887
-0.22316     0.23565  0.00039805
-0.31992    0.054627  -0.0040306
-0.27779   -0.084265  -0.0017887
-0.23565    -0.22316  0.00039805
-0.054627    -0.31992  -0.0040306
0.084265    -0.27779  -0.0017887
0.22316    -0.23565  0.00039805
0.006585  -0.0063818 -1.8062e-05
0.01438   -0.013851 -8.3447e-05
0.02208   -0.021015 -0.00013274
0.029823   -0.028011 -0.00017792
0.037663   -0.034891  -0.0002216
0.045605   -0.041654 -0.00026453
0.053646   -0.048299 -0.00030731
0.061784   -0.054825  -0.0003501
0.070018    -0.06123 -0.00039291
0.078345   -0.067513 -0.00043574
0.086764   -0.073672 -0.00047857
0.095273   -0.079707  -0.0005214
0.10387   -0.085615 -0.00056423
0.11255   -0.091396 -0.00060705
0.12132   -0.097048 -0.00064988
0.13017    -0.10257 -0.00069271
0.1391    -0.10796 -0.00073554
0.14811    -0.11322 -0.00077837
0.1572    -0.11834  -0.0008212
0.16636    -0.12333 -0.00086403
0.17559    -0.12819 -0.00090686
0.18489    -0.13291 -0.00094969
0.19427    -0.13749 -0.00099252
0.20371    -0.14193  -0.0010353
0.21321    -0.14623  -0.0010782
0.22277    -0.15039   -0.001121
0.2324    -0.15441  -0.0011638
0.24208    -0.15829  -0.0012067
0.25183    -0.16202  -0.0012495
0.26162    -0.16561  -0.0012923
0.27147    -0.16906  -0.0013352
0.28136    -0.17236   -0.001378
0.29131    -0.17551  -0.0014207
0.3013    -0.17851  -0.0014633
0.31133    -0.18137  -0.0015056
0.3214    -0.18408  -0.0015481
0.33152    -0.18664  -0.0015946
0.34167    -0.18904  -0.0016566
0.35185    -0.19132  -0.0017517
0.0063818    0.006585 -1.8062e-05
0.013851     0.01438 -8.3447e-05
0.021015     0.02208 -0.00013274
0.028011    0.029823 -0.00017792
0.034891    0.037663  -0.0002216
0.041654    0.045605 -0.00026453
0.048299    0.053646 -0.00030731
0.054825    0.061784  -0.0003501
0.06123    0.070018 -0.00039291
0.067513    0.078345 -0.00043574
0.073672    0.086764 -0.00047857
0.079707    0.095273  -0.0005214
0.085615     0.10387 -0.00056423
0.091396     0.11255 -0.00060705
0.097048     0.12132 -0.00064988
0.10257     0.13017 -0.00069271
0.10796      0.1391 -0.00073554
0.11322     0.14811 -0.00077837
0.11834      0.1572  -0.0008212
0.12333     0.16636 -0.00086403
0.12819     0.17559 -0.00090686
0.13291     0.18489 -0.00094969
0.13749     0.19427 -0.00099252
0.14193     0.20371  -0.0010353
0.14623     0.21321  -0.0010782
0.15039     0.22277   -0.001121
0.15441      0.2324  -0.0011638
0.15829     0.24208  -0.0012067
0.16202     0.25183  -0.0012495
0.16561     0.26162  -0.0012923
0.16906     0.27147  -0.0013352
0.17236     0.28136   -0.001378
0.17551     0.29131  -0.0014207
0.17851      0.3013  -0.0014633
0.18137     0.31133  -0.0015056
0.18408      0.3214  -0.0015481
0.18664     0.33152  -0.0015946
0.18904     0.34167  -0.0016566
0.19132     0.35185  -0.0017517
-0.006585   0.0063818 -1.8062e-05
-0.01438    0.013851 -8.3447e-05
-0.02208    0.021015 -0.00013274
-0.029823    0.028011 -0.00017792
-0.037663    0.034891  -0.0002216
-0.045605    0.041654 -0.00026453
-0.053646    0.048299 -0.00030731
-0.061784    0.054825  -0.0003501
-0.070018     0.06123 -0.00039291
-0.078345    0.067513 -0.00043574
-0.086764    0.073672 -0.00047857
-0.095273    0.079707  -0.0005214
-0.10387    0.085615 -0.00056423
-0.11255    0.091396 -0.00060705
-0.12132    0.097048 -0.00064988
-0.13017     0.10257 -0.00069271
-0.1391     0.10796 -0.00073554
-0.14811     0.11322 -0.00077837
-0.1572     0.11834  -0.0008212
-0.16636     0.12333 -0.00086403
-0.17559     0.12819 -0.00090686
-0.18489     0.13291 -0.00094969
-0.19427     0.13749 -0.00099252
-0.20371     0.14193  -0.0010353
-0.21321     0.14623  -0.0010782
-0.22277     0.15039   -0.001121
-0.2324     0.15441  -0.0011638
-0.24208     0.15829  -0.0012067
-0.25183     0.16202  -0.0012495
-0.26162     0.16561  -0.0012923
-0.27147     0.16906  -0.0013352
-0.28136     0.17236   -0.001378
-0.29131     0.17551  -0.0014207
-0.3013     0.17851  -0.0014633
-0.31133     0.18137  -0.0015056
-0.3214     0.18408  -0.0015481
-0.33152     0.18664  -0.0015946
-0.34167     0.18904  -0.0016566
-0.35185     0.19132  -0.0017517
-0.0063818   -0.006585 -1.8062e-05
-0.013851    -0.01438 -8.3447e-05
-0.021015    -0.02208 -0.00013274
-0.028011   -0.029823 -0.00017792
-0.034891   -0.037663  -0.0002216
-0.041654   -0.045605 -0.00026453
-0.048299   -0.053646 -0.00030731
-0.054825   -0.061784  -0.0003501
-0.06123   -0.070018 -0.00039291
-0.067513   -0.078345 -0.00043574
-0.073672   -0.086764 -0.00047857
-0.079707   -0.095273  -0.0005214
-0.085615    -0.10387 -0.00056423
-0.091396    -0.11255 -0.00060705
-0.097048    -0.12132 -0.00064988
-0.10257    -0.13017 -0.00069271
-0.10796     -0.1391 -0.00073554
-0.11322    -0.14811 -0.00077837
-0.11834     -0.1572  -0.0008212
-0.12333    -0.16636 -0.00086403
-0.12819    -0.17559 -0.00090686
-0.13291    -0.18489 -0.00094969
-0.13749    -0.19427 -0.00099252
-0.14193    -0.20371  -0.0010353
-0.14623    -0.21321  -0.0010782
-0.15039    -0.22277   -0.001121
-0.15441     -0.2324  -0.0011638
-0.15829    -0.24208  -0.0012067
-0.16202    -0.25183  -0.0012495
-0.16561    -0.26162  -0.0012923
-0.16906    -0.27147  -0.0013352
-0.17236    -0.28136   -0.001378
-0.17551    -0.29131  -0.0014207
-0.17851     -0.3013  -0.0014633
-0.18137    -0.31133  -0.0015056
-0.18408     -0.3214  -0.0015481
-0.18664    -0.33152  -0.0015946
-0.18904    -0.34167  -0.0016566
-0.19132    -0.35185  -0.0017517
0  0  0
0  0  0
0  0  0
0  0  0
0  0  0
0  0  0
0  0  0
0  0  0
0  0  0
0.0069431  -0.0033394  -0.0018309
0.014293  -0.0067952  -0.0023006
0.021802   -0.010235  -0.0023552
0.029359   -0.013546   -0.002393
0.03696   -0.016746  -0.0024348
0.044607   -0.019834  -0.0024776
0.052299   -0.022807  -0.0025204
0.060034   -0.025667  -0.0025632
0.06781   -0.028413  -0.0026061
0.075626   -0.031043  -0.0026489
0.08348   -0.033558  -0.0026917
0.091371   -0.035957  -0.0027345
0.099296   -0.038239  -0.0027774
0.10725   -0.040404  -0.0028202
0.11524   -0.042451   -0.002863
0.12326   -0.044381  -0.0029059
0.13131   -0.046191  -0.0029487
0.13938   -0.047883  -0.0029915
0.14747   -0.049456  -0.0030343
0.15559   -0.050909  -0.0030772
0.16373   -0.052241    -0.00312
0.17189   -0.053454  -0.0031628
0.18006   -0.054546  -0.0032057
0.18825   -0.055518  -0.0032485
0.19645   -0.056369  -0.0032913
0.20467   -0.057098  -0.0033341
0.21289   -0.057706   -0.003377
0.22112   -0.058193  -0.0034198
0.22936   -0.058558  -0.0034626
0.23761   -0.058802  -0.0035055
0.24585   -0.058924  -0.0035483
0.2541   -0.058924  -0.0035911
0.26234   -0.058803  -0.0036339
0.27059    -0.05856  -0.0036766
0.27883   -0.058195  -0.0037192
0.28706   -0.057708  -0.0037618
0.29529   -0.057096  -0.0038057
0.3035    -0.05636  -0.0038558
0.3117   -0.055513  -0.0039241
0.007273  9.1689e-05 -3.7814e-05
0.014212  0.00025844 -8.5614e-05
0.021545   0.0005231  -0.0001351
0.028915  0.00089437 -0.00017917
0.036277   0.0013748 -0.00022181
0.04363   0.0019641 -0.00026448
0.050974   0.0026619 -0.00030726
0.058306   0.0034681 -0.00035008
0.065625   0.0043824 -0.00039291
0.072931   0.0054046 -0.00043574
0.08022   0.0065345 -0.00047857
0.087492   0.0077718  -0.0005214
0.094745   0.0091162 -0.00056423
0.10198    0.010568 -0.00060705
0.10919    0.012125 -0.00064988
0.11637    0.013789 -0.00069271
0.12353    0.015559 -0.00073554
0.13067    0.017435 -0.00077837
0.13777    0.019415  -0.0008212
0.14485      0.0215 -0.00086403
0.15189    0.023689 -0.00090686
0.1589    0.025982 -0.00094969
0.16588    0.028378 -0.00099252
0.17282    0.030877  -0.0010353
0.17972    0.033478  -0.0010782
0.18659     0.03618   -0.001121
0.19341    0.038984  -0.0011638
0.20019    0.041888  -0.0012067
0.20693    0.044891  -0.0012495
0.21362    0.047994  -0.0012923
0.22027    0.051195  -0.0013352
0.22686    0.054493   -0.001378
0.23341    0.057889  -0.0014208
0.23991    0.061381  -0.0014636
0.24636    0.064968  -0.0015062
0.25275    0.068652  -0.0015483
0.25908    0.072431  -0.0015892
0.26536    0.076308  -0.0016312
0.27158    0.080272  -0.0016898
0.0068603   0.0035522   0.0017437
0.014048   0.0073461   0.0021259
0.021289    0.011315   0.0020867
0.028472    0.015371   0.0020359
0.035593    0.019532   0.0019915
0.042651    0.023798   0.0019486
0.049645    0.028167   0.0019059
0.056574    0.032639   0.0018631
0.063436    0.037214   0.0018202
0.07023    0.041888   0.0017774
0.076954    0.046663   0.0017346
0.083607    0.051536   0.0016917
0.090187    0.056507   0.0016489
0.096694    0.061575   0.0016061
0.10312    0.066737   0.0015633
0.10948    0.071995   0.0015204
0.11575    0.077345   0.0014776
0.12195    0.082787   0.0014348
0.12807    0.088321   0.0013919
0.1341    0.093943   0.0013491
0.14005    0.099655   0.0013063
0.14591     0.10545   0.0012635
0.15169     0.11134   0.0012206
0.15738     0.11731   0.0011778
0.16298     0.12336    0.001135
0.16849     0.12949   0.0010921
0.17392     0.13571   0.0010493
0.17924       0.142   0.0010065
0.18448     0.14837  0.00096365
0.18962     0.15482  0.00092082
0.19466     0.16135  0.00087799
0.19961     0.16794  0.00083516
0.20446     0.17461  0.00079236
0.20921     0.18135  0.00074963
0.21387     0.18816  0.00070705
0.21841     0.19504  0.00066454
0.22286     0.20199  0.00062095
0.2272       0.209  0.00057163
0.23145     0.21608  0.00050359
0.0033394   0.0069431  -0.0018309
0.0067952    0.014293  -0.0023006
0.010235    0.021802  -0.0023552
0.013546    0.029359   -0.002393
0.016746     0.03696  -0.0024348
0.019834    0.044607  -0.0024776
0.022807    0.052299  -0.0025204
0.025667    0.060034  -0.0025632
0.028413     0.06781  -0.0026061
0.031043    0.075626  -0.0026489
0.033558     0.08348  -0.0026917
0.035957    0.091371  -0.0027345
0.038239    0.099296  -0.0027774
0.040404     0.10725  -0.0028202
0.042451     0.11524   -0.002863
0.044381     0.12326  -0.0029059
0.046191     0.13131  -0.0029487
0.047883     0.13938  -0.0029915
0.049456     0.14747  -0.0030343
0.050909     0.15559  -0.0030772
0.052241     0.16373    -0.00312
0.053454     0.17189  -0.0031628
0.054546     0.18006  -0.0032057
0.055518     0.18825  -0.0032485
0.056369     0.19645  -0.0032913
0.057098     0.20467  -0.0033341
0.057706     0.21289   -0.003377
0.058193     0.22112  -0.0034198
0.058558     0.22936  -0.0034626
0.058802     0.23761  -0.0035055
0.058924     0.24585  -0.0035483
0.058924      0.2541  -0.0035911
0.058803     0.26234  -0.0036339
0.05856     0.27059  -0.0036766
0.058195     0.27883  -0.0037192
0.057708     0.28706  -0.0037618
0.057096     0.29529  -0.0038057
0.05636      0.3035  -0.0038558
0.055513      0.3117  -0.0039241
-9.1689e-05    0.007273 -3.7814e-05
-0.00025844    0.014212 -8.5614e-05
-0.0005231    0.021545  -0.0001351
-0.00089437    0.028915 -0.00017917
-0.0013748    0.036277 -0.00022181
-0.0019641     0.04363 -0.00026448
-0.0026619    0.050974 -0.00030726
-0.0034681    0.058306 -0.00035008
-0.0043824    0.065625 -0.00039291
-0.0054046    0.072931 -0.00043574
-0.0065345     0.08022 -0.00047857
-0.0077718    0.087492  -0.0005214
-0.0091162    0.094745 -0.00056423
-0.010568     0.10198 -0.00060705
-0.012125     0.10919 -0.00064988
-0.013789     0.11637 -0.00069271
-0.015559     0.12353 -0.00073554
-0.017435     0.13067 -0.00077837
-0.019415     0.13777  -0.0008212
-0.0215     0.14485 -0.00086403
-0.023689     0.15189 -0.00090686
-0.025982      0.1589 -0.00094969
-0.028378     0.16588 -0.00099252
-0.030877     0.17282  -0.0010353
-0.033478     0.17972  -0.0010782
-0.03618     0.18659   -0.001121
-0.038984     0.19341  -0.0011638
-0.041888     0.20019  -0.0012067
-0.044891     0.20693  -0.0012495
-0.047994     0.21362  -0.0012923
-0.051195     0.22027  -0.0013352
-0.054493     0.22686   -0.001378
-0.057889     0.23341  -0.0014208
-0.061381     0.23991  -0.0014636
-0.064968     0.24636  -0.0015062
-0.068652     0.25275  -0.0015483
-0.072431     0.25908  -0.0015892
-0.076308     0.26536  -0.0016312
-0.080272     0.27158  -0.0016898
-0.0035522   0.0068603   0.0017437
-0.0073461    0.014048   0.0021259
-0.011315    0.021289   0.0020867
-0.015371    0.028472   0.0020359
-0.019532    0.035593   0.0019915
-0.023798    0.042651   0.0019486
-0.028167    0.049645   0.0019059
-0.032639    0.056574   0.0018631
-0.037214    0.063436   0.0018202
-0.041888     0.07023   0.0017774
-0.046663    0.076954   0.0017346
-0.051536    0.083607   0.0016917
-0.056507    0.090187   0.0016489
-0.061575    0.096694   0.0016061
-0.066737     0.10312   0.0015633
-0.071995     0.10948   0.0015204
-0.077345     0.11575   0.0014776
-0.082787     0.12195   0.0014348
-0.088321     0.12807   0.0013919
-0.093943      0.1341   0.0013491
-0.099655     0.14005   0.0013063
-0.10545     0.14591   0.0012635
-0.11134     0.15169   0.0012206
-0.11731     0.15738   0.0011778
-0.12336     0.16298    0.001135
-0.12949     0.16849   0.0010921
-0.13571     0.17392   0.0010493
-0.142     0.17924   0.0010065
-0.14837     0.18448  0.00096365
-0.15482     0.18962  0.00092082
-0.16135     0.19466  0.00087799
-0.16794     0.19961  0.00083516
-0.17461     0.20446  0.00079236
-0.18135     0.20921  0.00074963
-0.18816     0.21387  0.00070705
-0.19504     0.21841  0.00066454
-0.20199     0.22286  0.00062095
-0.209      0.2272  0.00057163
-0.21608     0.23145  0.00050359
-0.0069431   0.0033394  -0.0018309
-0.014293   0.0067952  -0.0023006
-0.021802    0.010235  -0.0023552
-0.029359    0.013546   -0.002393
-0.03696    0.016746  -0.0024348
-0.044607    0.019834  -0.0024776
-0.052299    0.022807  -0.0025204
-0.060034    0.025667  -0.0025632
-0.06781    0.028413  -0.0026061
-0.075626    0.031043  -0.0026489
-0.08348    0.033558  -0.0026917
-0.091371    0.035957  -0.0027345
-0.099296    0.038239  -0.0027774
-0.10725    0.040404  -0.0028202
-0.11524    0.042451   -0.002863
-0.12326    0.044381  -0.0029059
-0.13131    0.046191  -0.0029487
-0.13938    0.047883  -0.0029915
-0.14747    0.049456  -0.0030343
-0.15559    0.050909  -0.0030772
-0.16373    0.052241    -0.00312
-0.17189    0.053454  -0.0031628
-0.18006    0.054546  -0.0032057
-0.18825    0.055518  -0.0032485
-0.19645    0.056369  -0.0032913
-0.20467    0.057098  -0.0033341
-0.21289    0.057706   -0.003377
-0.22112    0.058193  -0.0034198
-0.22936    0.058558  -0.0034626
-0.23761    0.058802  -0.0035055
-0.24585    0.058924  -0.0035483
-0.2541    0.058924  -0.0035911
-0.26234    0.058803  -0.0036339
-0.27059     0.05856  -0.0036766
-0.27883    0.058195  -0.0037192
-0.28706    0.057708  -0.0037618
-0.29529    0.057096  -0.0038057
-0.3035     0.05636  -0.0038558
-0.3117    0.055513  -0.0039241
-0.007273 -9.1689e-05 -3.7814e-05
-0.014212 -0.00025844 -8.5614e-05
-0.021545  -0.0005231  -0.0001351
-0.028915 -0.00089437 -0.00017917
-0.036277  -0.0013748 -0.00022181
-0.04363  -0.0019641 -0.00026448
-0.050974  -0.0026619 -0.00030726
-0.058306  -0.0034681 -0.00035008
-0.065625  -0.0043824 -0.00039291
-0.072931  -0.0054046 -0.00043574
-0.08022  -0.0065345 -0.00047857
-0.087492  -0.0077718  -0.0005214
-0.094745  -0.0091162 -0.00056423
-0.10198   -0.010568 -0.00060705
-0.10919   -0.012125 -0.00064988
-0.11637   -0.013789 -0.00069271
-0.12353   -0.015559 -0.00073554
-0.13067   -0.017435 -0.00077837
-0.13777   -0.019415  -0.0008212
-0.14485     -0.0215 -0.00086403
-0.15189   -0.023689 -0.00090686
-0.1589   -0.025982 -0.00094969
-0.16588   -0.028378 -0.00099252
-0.17282   -0.030877  -0.0010353
-0.17972   -0.033478  -0.0010782
-0.18659    -0.03618   -0.001121
-0.19341   -0.038984  -0.0011638
-0.20019   -0.041888  -0.0012067
-0.20693   -0.044891  -0.0012495
-0.21362   -0.047994  -0.0012923
-0.22027   -0.051195  -0.0013352
-0.22686   -0.054493   -0.001378
-0.23341   -0.057889  -0.0014208
-0.23991   -0.061381  -0.0014636
-0.24636   -0.064968  -0.0015062
-0.25275   -0.068652  -0.0015483
-0.25908   -0.072431  -0.0015892
-0.26536   -0.076308  -0.0016312
-0.27158   -0.080272  -0.0016898
-0.0068603  -0.0035522   0.0017437
-0.014048  -0.0073461   0.0021259
-0.021289   -0.011315   0.0020867
-0.028472   -0.015371   0.0020359
-0.035593   -0.019532   0.0019915
-0.042651   -0.023798   0.0019486
-0.049645   -0.028167   0.0019059
-0.056574   -0.032639   0.0018631
-0.063436   -0.037214   0.0018202
-0.07023   -0.041888   0.0017774
-0.076954   -0.046663   0.0017346
-0.083607   -0.051536   0.0016917
-0.090187   -0.056507   0.0016489
-0.096694   -0.061575   0.0016061
-0.10312   -0.066737   0.0015633
-0.10948   -0.071995   0.0015204
-0.11575   -0.077345   0.0014776
-0.12195   -0.082787   0.0014348
-0.12807   -0.088321   0.0013919
-0.1341   -0.093943   0.0013491
-0.14005   -0.099655   0.0013063
-0.14591    -0.10545   0.0012635
-0.15169    -0.11134   0.0012206
-0.15738    -0.11731   0.0011778
-0.16298    -0.12336    0.001135
-0.16849    -0.12949   0.0010921
-0.17392    -0.13571   0.0010493
-0.17924      -0.142   0.0010065
-0.18448    -0.14837  0.00096365
-0.18962    -0.15482  0.00092082
-0.19466    -0.16135  0.00087799
-0.19961    -0.16794  0.00083516
-0.20446    -0.17461  0.00079236
-0.20921    -0.18135  0.00074963
-0.21387    -0.18816  0.00070705
-0.21841    -0.19504  0.00066454
-0.22286    -0.20199  0.00062095
-0.2272      -0.209  0.00057163
-0.23145    -0.21608  0.00050359
-0.0033394  -0.0069431  -0.0018309
-0.0067952   -0.014293  -0.0023006
-0.010235   -0.021802  -0.0023552
-0.013546   -0.029359   -0.002393
-0.016746    -0.03696  -0.0024348
-0.019834   -0.044607  -0.0024776
-0.022807   -0.052299  -0.0025204
-0.025667   -0.060034  -0.0025632
-0.028413    -0.06781  -0.0026061
-0.031043   -0.075626  -0.0026489
-0.033558    -0.08348  -0.0026917
-0.035957   -0.091371  -0.0027345
-0.038239   -0.099296  -0.0027774
-0.040404    -0.10725  -0.0028202
-0.042451    -0.11524   -0.002863
-0.044381    -0.12326  -0.0029059
-0.046191    -0.13131  -0.0029487
-0.047883    -0.13938  -0.0029915
-0.049456    -0.14747  -0.0030343
-0.050909    -0.15559  -0.0030772
-0.052241    -0.16373    -0.00312
-0.053454    -0.17189  -0.0031628
-0.054546    -0.18006  -0.0032057
-0.055518    -0.18825  -0.0032485
-0.056369    -0.19645  -0.0032913
-0.057098    -0.20467  -0.0033341
-0.057706    -0.21289   -0.003377
-0.058193    -0.22112  -0.0034198
-0.058558    -0.22936  -0.0034626
-0.058802    -0.23761  -0.0035055
-0.058924    -0.24585  -0.0035483
-0.058924     -0.2541  -0.0035911
-0.058803    -0.26234  -0.0036339
-0.05856    -0.27059  -0.0036766
-0.058195    -0.27883  -0.0037192
-0.057708    -0.28706  -0.0037618
-0.057096    -0.29529  -0.0038057
-0.05636     -0.3035  -0.0038558
-0.055513     -0.3117  -0.0039241
9.1689e-05   -0.007273 -3.7814e-05
0.00025844   -0.014212 -8.5614e-05
0.0005231   -0.021545  -0.0001351
0.00089437   -0.028915 -0.00017917
0.0013748   -0.036277 -0.00022181
0.0019641    -0.04363 -0.00026448
0.0026619   -0.050974 -0.00030726
0.0034681   -0.058306 -0.00035008
0.0043824   -0.065625 -0.00039291
0.0054046   -0.072931 -0.00043574
0.0065345    -0.08022 -0.00047857
0.0077718   -0.087492  -0.0005214
0.0091162   -0.094745 -0.00056423
0.010568    -0.10198 -0.00060705
0.012125    -0.10919 -0.00064988
0.013789    -0.11637 -0.00069271
0.015559    -0.12353 -0.00073554
0.017435    -0.13067 -0.00077837
0.019415    -0.13777  -0.0008212
0.0215    -0.14485 -0.00086403
0.023689    -0.15189 -0.00090686
0.025982     -0.1589 -0.00094969
0.028378    -0.16588 -0.00099252
0.030877    -0.17282  -0.0010353
0.033478    -0.17972  -0.0010782
0.03618    -0.18659   -0.001121
0.038984    -0.19341  -0.0011638
0.041888    -0.20019  -0.0012067
0.044891    -0.20693  -0.0012495
0.047994    -0.21362  -0.0012923
0.051195    -0.22027  -0.0013352
0.054493    -0.22686   -0.001378
0.057889    -0.23341  -0.0014208
0.061381    -0.23991  -0.0014636
0.064968    -0.24636  -0.0015062