# vtk DataFile Version 3.0
VTK Output
ASCII
DATASET UNSTRUCTURED_GRID

POINTS 1025 float
-0.5        -0.5           0
0.5        -0.5           0
0.5         0.5           0
-0.5         0.5           0
-0.5         -0.5           10
0.5         -0.5           10
0.5          0.5           10
-0.5          0.5           10
-0.25        -0.5           0
-1.3751e-12        -0.5           0
0.25        -0.5           0
0.5       -0.25           0
0.5 -1.3751e-12           0
0.5        0.25           0
0.25         0.5           0
1.3751e-12         0.5           0
-0.25         0.5           0
-0.5        0.25           0
-0.5  1.3751e-12           0
-0.5       -0.25           0
-0.25         -0.5           10
-1.37512e-12         -0.5           10
0.25         -0.5           10
0.5        -0.25           10
0.5 -1.37512e-12           10
0.5         0.25           10
0.25          0.5           10
1.37512e-12          0.5           10
-0.25          0.5           10
-0.5         0.25           10
-0.5  1.37512e-12           10
-0.5        -0.25           10
-0.5        -0.5        0.25
-0.5        -0.5         0.5
-0.5        -0.5        0.75
-0.5        -0.5           1
-0.5        -0.5        1.25
-0.5        -0.5         1.5
-0.5        -0.5        1.75
-0.5        -0.5           2
-0.5        -0.5        2.25
-0.5        -0.5         2.5
-0.5        -0.5        2.75
-0.5        -0.5           3
-0.5        -0.5        3.25
-0.5        -0.5         3.5
-0.5        -0.5        3.75
-0.5        -0.5           4
-0.5        -0.5        4.25
-0.5        -0.5         4.5
-0.5        -0.5        4.75
-0.5        -0.5           5
-0.5        -0.5        5.25
-0.5        -0.5         5.5
-0.5        -0.5        5.75
-0.5        -0.5           6
-0.5        -0.5        6.25
-0.5        -0.5         6.5
-0.5        -0.5        6.75
-0.5        -0.5           7
-0.5        -0.5        7.25
-0.5        -0.5         7.5
-0.5        -0.5        7.75
-0.5        -0.5           8
-0.5        -0.5        8.25
-0.5        -0.5         8.5
-0.5        -0.5        8.75
-0.5        -0.5           9
-0.5        -0.5        9.25
-0.5        -0.5         9.5
-0.5        -0.5        9.75
0.5        -0.5        0.25
0.5        -0.5         0.5
0.5        -0.5        0.75
0.5        -0.5           1
0.5        -0.5        1.25
0.5        -0.5         1.5
0.5        -0.5        1.75
0.5        -0.5           2
0.5        -0.5        2.25
0.5        -0.5         2.5
0.5        -0.5        2.75
0.5        -0.5           3
0.5        -0.5        3.25
0.5        -0.5         3.5
0.5        -0.5        3.75
0.5        -0.5           4
0.5        -0.5        4.25
0.5        -0.5         4.5
0.5        -0.5        4.75
0.5        -0.5           5
0.5        -0.5        5.25
0.5        -0.5         5.5
0.5        -0.5        5.75
0.5        -0.5           6
0.5        -0.5        6.25
0.5        -0.5         6.5
0.5        -0.5        6.75
0.5        -0.5           7
0.5        -0.5        7.25
0.5        -0.5         7.5
0.5        -0.5        7.75
0.5        -0.5           8
0.5        -0.5        8.25
0.5        -0.5         8.5
0.5        -0.5        8.75
0.5        -0.5           9
0.5        -0.5        9.25
0.5        -0.5         9.5
0.5        -0.5        9.75
0.5         0.5        0.25
0.5         0.5         0.5
0.5         0.5        0.75
0.5         0.5           1
0.5         0.5        1.25
0.5         0.5         1.5
0.5         0.5        1.75
0.5         0.5           2
0.5         0.5        2.25
0.5         0.5         2.5
0.5         0.5        2.75
0.5         0.5           3
0.5         0.5        3.25
0.5         0.5         3.5
0.5         0.5        3.75
0.5         0.5           4
0.5         0.5        4.25
0.5         0.5         4.5
0.5         0.5        4.75
0.5         0.5           5
0.5         0.5        5.25
0.5         0.5         5.5
0.5         0.5        5.75
0.5         0.5           6
0.5         0.5        6.25
0.5         0.5         6.5
0.5         0.5        6.75
0.5         0.5           7
0.5         0.5        7.25
0.5         0.5         7.5
0.5         0.5        7.75
0.5         0.5           8
0.5         0.5        8.25
0.5         0.5         8.5
0.5         0.5        8.75
0.5         0.5           9
0.5         0.5        9.25
0.5         0.5         9.5
0.5         0.5        9.75
-0.5         0.5        0.25
-0.5         0.5         0.5
-0.5         0.5        0.75
-0.5         0.5           1
-0.5         0.5        1.25
-0.5         0.5         1.5
-0.5         0.5        1.75
-0.5         0.5           2
-0.5         0.5        2.25
-0.5         0.5         2.5
-0.5         0.5        2.75
-0.5         0.5           3
-0.5         0.5        3.25
-0.5         0.5         3.5
-0.5         0.5        3.75
-0.5         0.5           4
-0.5         0.5        4.25
-0.5         0.5         4.5
-0.5         0.5        4.75
-0.5         0.5           5
-0.5         0.5        5.25
-0.5         0.5         5.5
-0.5         0.5        5.75
-0.5         0.5           6
-0.5         0.5        6.25
-0.5         0.5         6.5
-0.5         0.5        6.75
-0.5         0.5           7
-0.5         0.5        7.25
-0.5         0.5         7.5
-0.5         0.5        7.75
-0.5         0.5           8
-0.5         0.5        8.25
-0.5         0.5         8.5
-0.5         0.5        8.75
-0.5         0.5           9
-0.5         0.5        9.25
-0.5         0.5         9.5
-0.5         0.5        9.75
-0.25       -0.25           0
-0.25  6.8756e-13           0
-0.25        0.25           0
-6.8756e-13       -0.25           0
-3.7821e-24           0           0
6.8756e-13        0.25           0
0.25       -0.25           0
0.25 -6.8756e-13           0
0.25        0.25           0
-0.25        -0.5        0.25
-0.25        -0.5         0.5
-0.25        -0.5        0.75
-0.25        -0.5           1
-0.25        -0.5        1.25
-0.25        -0.5         1.5
-0.25        -0.5        1.75
-0.25        -0.5           2
-0.25        -0.5        2.25
-0.25        -0.5         2.5
-0.25        -0.5        2.75
-0.25        -0.5           3
-0.25        -0.5        3.25
-0.25        -0.5         3.5
-0.25        -0.5        3.75
-0.25        -0.5           4
-0.25        -0.5        4.25
-0.25        -0.5         4.5
-0.25        -0.5        4.75
-0.25        -0.5           5
-0.25        -0.5        5.25
-0.25        -0.5         5.5
-0.25        -0.5        5.75
-0.25        -0.5           6
-0.25        -0.5        6.25
-0.25        -0.5         6.5
-0.25        -0.5        6.75
-0.25        -0.5           7
-0.25        -0.5        7.25
-0.25        -0.5         7.5
-0.25        -0.5        7.75
-0.25        -0.5           8
-0.25        -0.5        8.25
-0.25        -0.5         8.5
-0.25        -0.5        8.75
-0.25        -0.5           9
-0.25        -0.5        9.25
-0.25        -0.5         9.5
-0.25        -0.5        9.75
-1.3751e-12        -0.5        0.25
-1.3751e-12        -0.5         0.5
-1.3751e-12        -0.5        0.75
-1.3751e-12        -0.5           1
-1.3751e-12        -0.5        1.25
-1.3751e-12        -0.5         1.5
-1.3751e-12        -0.5        1.75
-1.3751e-12        -0.5           2
-1.3751e-12        -0.5        2.25
-1.3751e-12        -0.5         2.5
-1.3751e-12        -0.5        2.75
-1.3751e-12        -0.5           3
-1.3751e-12        -0.5        3.25
-1.3751e-12        -0.5         3.5
-1.3751e-12        -0.5        3.75
-1.3751e-12        -0.5           4
-1.3751e-12        -0.5        4.25
-1.3751e-12        -0.5         4.5
-1.3751e-12        -0.5        4.75
-1.3751e-12        -0.5           5
-1.3751e-12        -0.5        5.25
-1.3751e-12        -0.5         5.5
-1.3751e-12        -0.5        5.75
-1.3751e-12        -0.5           6
-1.3751e-12        -0.5        6.25
-1.3751e-12        -0.5         6.5
-1.3751e-12        -0.5        6.75
-1.3751e-12        -0.5           7
-1.3751e-12        -0.5        7.25
-1.3751e-12        -0.5         7.5
-1.3751e-12        -0.5        7.75
-1.3751e-12        -0.5           8
-1.3751e-12        -0.5        8.25
-1.3751e-12        -0.5         8.5
-1.3751e-12        -0.5        8.75
-1.3751e-12        -0.5           9
-1.3751e-12        -0.5        9.25
-1.3751e-12        -0.5         9.5
-1.3751e-12        -0.5        9.75
0.25        -0.5        0.25
0.25        -0.5         0.5
0.25        -0.5        0.75
0.25        -0.5           1
0.25        -0.5        1.25
0.25        -0.5         1.5
0.25        -0.5        1.75
0.25        -0.5           2
0.25        -0.5        2.25
0.25        -0.5         2.5
0.25        -0.5        2.75
0.25        -0.5           3
0.25        -0.5        3.25
0.25        -0.5         3.5
0.25        -0.5        3.75
0.25        -0.5           4
0.25        -0.5        4.25
0.25        -0.5         4.5
0.25        -0.5        4.75
0.25        -0.5           5
0.25        -0.5        5.25
0.25        -0.5         5.5
0.25        -0.5        5.75
0.25        -0.5           6
0.25        -0.5        6.25
0.25        -0.5         6.5
0.25        -0.5        6.75
0.25        -0.5           7
0.25        -0.5        7.25
0.25        -0.5         7.5
0.25        -0.5        7.75
0.25        -0.5           8
0.25        -0.5        8.25
0.25        -0.5         8.5
0.25        -0.5        8.75
0.25        -0.5           9
0.25        -0.5        9.25
0.25        -0.5         9.5
0.25        -0.5        9.75
0.5       -0.25        0.25
0.5       -0.25         0.5
0.5       -0.25        0.75
0.5       -0.25           1
0.5       -0.25        1.25
0.5       -0.25         1.5
0.5       -0.25        1.75
0.5       -0.25           2
0.5       -0.25        2.25
0.5       -0.25         2.5
0.5       -0.25        2.75
0.5       -0.25           3
0.5       -0.25        3.25
0.5       -0.25         3.5
0.5       -0.25        3.75
0.5       -0.25           4
0.5       -0.25        4.25
[...]
POINT_DATA 1025
VECTORS displacement double
0  0  0
0  0  0
0  0  0
0  0  0
0.2294    -0.15328 -0.00084368
0.15328      0.2294 -0.00084368
-0.2294     0.15328 -0.00084368
-0.15328     -0.2294 -0.00084368
0  0  0
0  0  0
0  0  0
0  0  0
0  0  0
0  0  0
0  0  0
0  0  0
0  0  0
0  0  0
0  0  0
0  0  0
0.21037   -0.057611  -0.0022831
0.19134     0.03806 -0.00079508
0.17231     0.13373  0.00066847
0.057611     0.21037  -0.0022831
-0.03806     0.19134 -0.00079508
-0.13373     0.17231  0.00066847
-0.21037    0.057611  -0.0022831
-0.19134    -0.03806 -0.00079508
-0.17231    -0.13373  0.00066847
-0.057611    -0.21037  -0.0022831
0.03806    -0.19134 -0.00079508
0.13373    -0.17231  0.00066847
0.0043683   -0.004278 -8.0328e-06
0.0095301  -0.0092951 -3.7105e-05
0.014606   -0.014133 -5.9009e-05
0.019689   -0.018884 -7.9092e-05
0.024815   -0.023583  -9.851e-05
0.029988   -0.028231 -0.00011759
0.035207   -0.032829 -0.00013661
0.04047   -0.037375 -0.00015563
0.045779   -0.041869 -0.00017466
0.05113   -0.046311  -0.0001937
0.056526     -0.0507 -0.00021274
0.061964   -0.055035 -0.00023178
0.067445   -0.059317 -0.00025081
0.072967   -0.063545 -0.00026985
0.078531   -0.067718 -0.00028889
0.084136   -0.071836 -0.00030793
0.089781   -0.075899 -0.00032697
0.095465   -0.079906 -0.00034601
0.10119   -0.083857 -0.00036505
0.10695   -0.087752 -0.00038408
0.11275    -0.09159 -0.00040312
0.11859    -0.09537 -0.00042216
0.12446   -0.099093  -0.0004412
0.13038    -0.10276 -0.00046024
0.13632    -0.10636 -0.00047928
0.1423    -0.10991 -0.00049832
0.14832     -0.1134 -0.00051735
0.15437    -0.11683 -0.00053639
0.16046     -0.1202 -0.00055543
0.16657    -0.12351 -0.00057447
0.17272    -0.12676 -0.00059351
0.1789    -0.12995 -0.00061254
0.18511    -0.13308 -0.00063155
0.19136    -0.13614 -0.00065047
0.19763    -0.13915 -0.00066926
0.20393    -0.14209 -0.00068818
0.21026    -0.14497 -0.00070884
0.21662    -0.14779 -0.00073638
0.223    -0.15055 -0.00077864
0.004278   0.0043683 -8.0328e-06
0.0092951   0.0095301 -3.7105e-05
0.014133    0.014606 -5.9009e-05
0.018884    0.019689 -7.9092e-05
0.023583    0.024815  -9.851e-05
0.028231    0.029988 -0.00011759
0.032829    0.035207 -0.00013661
0.037375     0.04047 -0.00015563
0.041869    0.045779 -0.00017466
0.046311     0.05113  -0.0001937
0.0507    0.056526 -0.00021274
0.055035    0.061964 -0.00023178
0.059317    0.067445 -0.00025081
0.063545    0.072967 -0.00026985
0.067718    0.078531 -0.00028889
0.071836    0.084136 -0.00030793
0.075899    0.089781 -0.00032697
0.079906    0.095465 -0.00034601
0.083857     0.10119 -0.00036505
0.087752     0.10695 -0.00038408
0.09159     0.11275 -0.00040312
0.09537     0.11859 -0.00042216
0.099093     0.12446  -0.0004412
0.10276     0.13038 -0.00046024
0.10636     0.13632 -0.00047928
0.10991      0.1423 -0.00049832
0.1134     0.14832 -0.00051735
0.11683     0.15437 -0.00053639
0.1202     0.16046 -0.00055543
0.12351     0.16657 -0.00057447
0.12676     0.17272 -0.00059351
0.12995      0.1789 -0.00061254
0.13308     0.18511 -0.00063155
0.13614     0.19136 -0.00065047
0.13915     0.19763 -0.00066926
0.14209     0.20393 -0.00068818
0.14497     0.21026 -0.00070884
0.14779     0.21662 -0.00073638
0.15055       0.223 -0.00077864
-0.0043683    0.004278 -8.0328e-06
-0.0095301   0.0092951 -3.7105e-05
-0.014606    0.014133 -5.9009e-05
-0.019689    0.018884 -7.9092e-05
-0.024815    0.023583  -9.851e-05
-0.029988    0.028231 -0.00011759
-0.035207    0.032829 -0.00013661
-0.04047    0.037375 -0.00015563
-0.045779    0.041869 -0.00017466
-0.05113    0.046311  -0.0001937
-0.056526      0.0507 -0.00021274
-0.061964    0.055035 -0.00023178
-0.067445    0.059317 -0.00025081
-0.072967    0.063545 -0.00026985
-0.078531    0.067718 -0.00028889
-0.084136    0.071836 -0.00030793
-0.089781    0.075899 -0.00032697
-0.095465    0.079906 -0.00034601
-0.10119    0.083857 -0.00036505
-0.10695    0.087752 -0.00038408
-0.11275     0.09159 -0.00040312
-0.11859     0.09537 -0.00042216
-0.12446    0.099093  -0.0004412
-0.13038     0.10276 -0.00046024
-0.13632     0.10636 -0.00047928
-0.1423     0.10991 -0.00049832
-0.14832      0.1134 -0.00051735
-0.15437     0.11683 -0.00053639
-0.16046      0.1202 -0.00055543
-0.16657     0.12351 -0.00057447
-0.17272     0.12676 -0.00059351
-0.1789     0.12995 -0.00061254
-0.18511     0.13308 -0.00063155
-0.19136     0.13614 -0.00065047
-0.19763     0.13915 -0.00066926
-0.20393     0.14209 -0.00068818
-0.21026     0.14497 -0.00070884
-0.21662     0.14779 -0.00073638
-0.223     0.15055 -0.00077864
-0.004278  -0.0043683 -8.0328e-06
-0.0092951  -0.0095301 -3.7105e-05
-0.014133   -0.014606 -5.9009e-05
-0.018884   -0.019689 -7.9092e-05
-0.023583   -0.024815  -9.851e-05
-0.028231   -0.029988 -0.00011759
-0.032829   -0.035207 -0.00013661
-0.037375    -0.04047 -0.00015563
-0.041869   -0.045779 -0.00017466
-0.046311    -0.05113  -0.0001937
-0.0507   -0.056526 -0.00021274
-0.055035   -0.061964 -0.00023178
-0.059317   -0.067445 -0.00025081
-0.063545   -0.072967 -0.00026985
-0.067718   -0.078531 -0.00028889
-0.071836   -0.084136 -0.00030793
-0.075899   -0.089781 -0.00032697
-0.079906   -0.095465 -0.00034601
-0.083857    -0.10119 -0.00036505
-0.087752    -0.10695 -0.00038408
-0.09159    -0.11275 -0.00040312
-0.09537    -0.11859 -0.00042216
-0.099093    -0.12446  -0.0004412
-0.10276    -0.13038 -0.00046024
-0.10636    -0.13632 -0.00047928
-0.10991     -0.1423 -0.00049832
-0.1134    -0.14832 -0.00051735
-0.11683    -0.15437 -0.00053639
-0.1202    -0.16046 -0.00055543
-0.12351    -0.16657 -0.00057447
-0.12676    -0.17272 -0.00059351
-0.12995     -0.1789 -0.00061254
-0.13308    -0.18511 -0.00063155
-0.13614    -0.19136 -0.00065047
-0.13915    -0.19763 -0.00066926
-0.14209    -0.20393 -0.00068818
-0.14497    -0.21026 -0.00070884
-0.14779    -0.21662 -0.00073638
-0.15055      -0.223 -0.00077864
0  0  0
0  0  0
0  0  0
0  0  0
0  0  0
0  0  0
0  0  0
0  0  0
0  0  0
0.0046206  -0.0022503   -0.001211
0.0095036  -0.0045923  -0.0015144
0.014482  -0.0069453  -0.0015403
0.019482  -0.0092374  -0.0015557
0.024503   -0.011481   -0.001574
0.029545   -0.013674   -0.001593
0.034608   -0.015818   -0.001612
0.039692   -0.017911  -0.0016311
0.044797   -0.019955  -0.0016501
0.049921   -0.021948  -0.0016692
0.055065   -0.023891  -0.0016882
0.060227   -0.025783  -0.0017072
0.065408   -0.027624  -0.0017263
0.070607   -0.029414  -0.0017453
0.075823   -0.031153  -0.0017643
0.081056   -0.032841  -0.0017834
0.086306   -0.034477  -0.0018024
0.091571   -0.036061  -0.0018215
0.096851   -0.037594  -0.0018405
0.10215   -0.039074  -0.0018595
0.10746   -0.040502  -0.0018786
0.11278   -0.041878  -0.0018976
0.11812   -0.043202  -0.0019167
0.12347   -0.044473  -0.0019357
0.12883   -0.045691  -0.0019547
0.1342   -0.046857  -0.0019738
0.13959   -0.047969  -0.0019928
0.14498   -0.049029  -0.0020118
0.15039   -0.050035  -0.0020309
0.1558   -0.050988  -0.0020499
0.16123   -0.051888   -0.002069
0.16666   -0.052735   -0.002088
0.1721   -0.053528   -0.002107
0.17755   -0.054267   -0.002126
0.183   -0.054953   -0.002145
0.18847   -0.055585  -0.0021639
0.19393   -0.056161  -0.0021834
0.19941   -0.056683  -0.0022056
0.20489   -0.057155  -0.0022359
0.0048499  4.0765e-05 -1.6817e-05
0.009477  0.00011489 -3.8063e-05
0.014368  0.00023255 -6.0059e-05
0.019285  0.00039761 -7.9646e-05
0.024199  0.00061122   -9.86e-05
0.02911  0.00087332 -0.00011757
0.034018   0.0011838 -0.00013659
0.038923   0.0015425 -0.00015562
0.043824   0.0019495 -0.00017466
0.048721   0.0024047  -0.0001937
0.053613    0.002908 -0.00021274
0.0585   0.0034594 -0.00023178
0.063382   0.0040588 -0.00025081
0.068257   0.0047063 -0.00026985
0.073125   0.0054016 -0.00028889
0.077987   0.0061448 -0.00030793
0.082841   0.0069358 -0.00032697
0.087687   0.0077745 -0.00034601
0.092524   0.0086609 -0.00036505
0.097353   0.0095947 -0.00038408
0.10217    0.010576 -0.00040312
0.10698    0.011605 -0.00042216
0.11178    0.012681  -0.0004412
0.11657    0.013804 -0.00046024
0.12134    0.014974 -0.00047928
0.12611    0.016191 -0.00049832
0.13086    0.017455 -0.00051735
0.1356    0.018765 -0.00053639
0.14033    0.020122 -0.00055543
0.14504    0.021526 -0.00057447
0.14974    0.022976 -0.00059351
0.15443    0.024472 -0.00061255
0.1591    0.026014  -0.0006316
0.16375    0.027602 -0.00065062
0.16839    0.029235 -0.00066956
0.17301    0.030915 -0.00068824
0.17762    0.032641 -0.00070644
0.18221    0.034414 -0.00072511
0.18678     0.03623 -0.00075114
0.0045838    0.002345   0.0011723
0.0093949   0.0048373   0.0014368
0.014254   0.0074255   0.0014209
0.019088    0.010048   0.0013969
0.023895    0.012719   0.0013769
0.028675    0.015437   0.0013579
0.033428    0.018201   0.0013389
0.038153    0.021012   0.0013198
0.042851     0.02387   0.0013008
0.04752    0.026773   0.0012818
0.05216    0.029723   0.0012627
0.056771    0.032718   0.0012437
0.061353    0.035758   0.0012246
0.065904    0.038843   0.0012056
0.070425    0.041972   0.0011866
0.074915    0.045146   0.0011675
0.079373    0.048364   0.0011485
0.0838    0.051626   0.0011294
0.088194    0.054931   0.0011104
0.092555    0.058279   0.0010914
0.096884     0.06167   0.0010723
0.10118    0.065103   0.0010533
0.10544    0.068579   0.0010343
0.10967    0.072096   0.0010152
0.11386    0.075654  0.00099618
0.11801    0.079254  0.00097714
0.12213    0.082894   0.0009581
0.12622    0.086575  0.00093906
0.13027    0.090295  0.00092002
0.13428    0.094056  0.00090098
0.13825    0.097855  0.00088195
0.14219     0.10169  0.00086291
0.14609     0.10557  0.00084388
0.14995     0.10949  0.00082489
0.15377     0.11344  0.00080596
0.15755     0.11743  0.00078705
0.1613     0.12146  0.00076765
0.165     0.12552  0.00074568
0.16866     0.12962  0.00071543
0.0022503   0.0046206   -0.001211
0.0045923   0.0095036  -0.0015144
0.0069453    0.014482  -0.0015403
0.0092374    0.019482  -0.0015557
0.011481    0.024503   -0.001574
0.013674    0.029545   -0.001593
0.015818    0.034608   -0.001612
0.017911    0.039692  -0.0016311
0.019955    0.044797  -0.0016501
0.021948    0.049921  -0.0016692
0.023891    0.055065  -0.0016882
0.025783    0.060227  -0.0017072
0.027624    0.065408  -0.0017263
0.029414    0.070607  -0.0017453
0.031153    0.075823  -0.0017643
0.032841    0.081056  -0.0017834
0.034477    0.086306  -0.0018024
0.036061    0.091571  -0.0018215
0.037594    0.096851  -0.0018405
0.039074     0.10215  -0.0018595
0.040502     0.10746  -0.0018786
0.041878     0.11278  -0.0018976
0.043202     0.11812  -0.0019167
0.044473     0.12347  -0.0019357
0.045691     0.12883  -0.0019547
0.046857      0.1342  -0.0019738
0.047969     0.13959  -0.0019928
0.049029     0.14498  -0.0020118
0.050035     0.15039  -0.0020309
0.050988      0.1558  -0.0020499
0.051888     0.16123   -0.002069
0.052735     0.16666   -0.002088
0.053528      0.1721   -0.002107
0.054267     0.17755   -0.002126
0.054953       0.183   -0.002145
0.055585     0.18847  -0.0021639
0.056161     0.19393  -0.0021834
0.056683     0.19941  -0.0022056
0.057155     0.20489  -0.0022359
-4.0765e-05   0.0048499 -1.6817e-05
-0.00011489    0.009477 -3.8063e-05
-0.00023255    0.014368 -6.0059e-05
-0.00039761    0.019285 -7.9646e-05
-0.00061122    0.024199   -9.86e-05
-0.00087332     0.02911 -0.00011757
-0.0011838    0.034018 -0.00013659
-0.0015425    0.038923 -0.00015562
-0.0019495    0.043824 -0.00017466
-0.0024047    0.048721  -0.0001937
-0.002908    0.053613 -0.00021274
-0.0034594      0.0585 -0.00023178
-0.0040588    0.063382 -0.00025081
-0.0047063    0.068257 -0.00026985
-0.0054016    0.073125 -0.00028889
-0.0061448    0.077987 -0.00030793
-0.0069358    0.082841 -0.00032697
-0.0077745    0.087687 -0.00034601
-0.0086609    0.092524 -0.00036505
-0.0095947    0.097353 -0.00038408
-0.010576     0.10217 -0.00040312
-0.011605     0.10698 -0.00042216
-0.012681     0.11178  -0.0004412
-0.013804     0.11657 -0.00046024
-0.014974     0.12134 -0.00047928
-0.016191     0.12611 -0.00049832
-0.017455     0.13086 -0.00051735
-0.018765      0.1356 -0.00053639
-0.020122     0.14033 -0.00055543
-0.021526     0.14504 -0.00057447
-0.022976     0.14974 -0.00059351
-0.024472     0.15443 -0.00061255
-0.026014      0.1591  -0.0006316
-0.027602     0.16375 -0.00065062
-0.029235     0.16839 -0.00066956
-0.030915     0.17301 -0.00068824
-0.032641     0.17762 -0.00070644
-0.034414     0.18221 -0.00072511
-0.03623     0.18678 -0.00075114
-0.002345   0.0045838   0.0011723
-0.0048373   0.0093949   0.0014368
-0.0074255    0.014254   0.0014209
-0.010048    0.019088   0.0013969
-0.012719    0.023895   0.0013769
-0.015437    0.028675   0.0013579
-0.018201    0.033428   0.0013389
-0.021012    0.038153   0.0013198
-0.02387    0.042851   0.0013008
-0.026773     0.04752   0.0012818
-0.029723     0.05216   0.0012627
-0.032718    0.056771   0.0012437
-0.035758    0.061353   0.0012246
-0.038843    0.065904   0.0012056
-0.041972    0.070425   0.0011866
-0.045146    0.074915   0.0011675
-0.048364    0.079373   0.0011485
-0.051626      0.0838   0.0011294
-0.054931    0.088194   0.0011104
-0.058279    0.092555   0.0010914
-0.06167    0.096884   0.0010723
-0.065103     0.10118   0.0010533
-0.068579     0.10544   0.0010343
-0.072096     0.10967   0.0010152
-0.075654     0.11386  0.00099618
-0.079254     0.11801  0.00097714
-0.082894     0.12213   0.0009581
-0.086575     0.12622  0.00093906
-0.090295     0.13027  0.00092002
-0.094056     0.13428  0.00090098
-0.097855     0.13825  0.00088195
-0.10169     0.14219  0.00086291
-0.10557     0.14609  0.00084388
-0.10949     0.14995  0.00082489
-0.11344     0.15377  0.00080596
-0.11743     0.15755  0.00078705
-0.12146      0.1613  0.00076765
-0.12552       0.165  0.00074568
-0.12962     0.16866  0.00071543
-0.0046206   0.0022503   -0.001211
-0.0095036   0.0045923  -0.0015144
-0.014482   0.0069453  -0.0015403
-0.019482   0.0092374  -0.0015557
-0.024503    0.011481   -0.001574
-0.029545    0.013674   -0.001593
-0.034608    0.015818   -0.001612
-0.039692    0.017911  -0.0016311
-0.044797    0.019955  -0.0016501
-0.049921    0.021948  -0.0016692
-0.055065    0.023891  -0.0016882
-0.060227    0.025783  -0.0017072
-0.065408    0.027624  -0.0017263
-0.070607    0.029414  -0.0017453
-0.075823    0.031153  -0.0017643
-0.081056    0.032841  -0.0017834
-0.086306    0.034477  -0.0018024
-0.091571    0.036061  -0.0018215
-0.096851    0.037594  -0.0018405
-0.10215    0.039074  -0.0018595
-0.10746    0.040502  -0.0018786
-0.11278    0.041878  -0.0018976
-0.11812    0.043202  -0.0019167
-0.12347    0.044473  -0.0019357
-0.12883    0.045691  -0.0019547
-0.1342    0.046857  -0.0019738
-0.13959    0.047969  -0.0019928
-0.14498    0.049029  -0.0020118
-0.15039    0.050035  -0.0020309
-0.1558    0.050988  -0.0020499
-0.16123    0.051888   -0.002069
-0.16666    0.052735   -0.002088
-0.1721    0.053528   -0.002107
-0.17755    0.054267   -0.002126
-0.183    0.054953   -0.002145
-0.18847    0.055585  -0.0021639
-0.19393    0.056161  -0.0021834
-0.19941    0.056683  -0.0022056
-0.20489    0.057155  -0.0022359
-0.0048499 -4.0765e-05 -1.6817e-05
-0.009477 -0.00011489 -3.8063e-05
-0.014368 -0.00023255 -6.0059e-05
-0.019285 -0.00039761 -7.9646e-05
-0.024199 -0.00061122   -9.86e-05
-0.02911 -0.00087332 -0.00011757
-0.034018  -0.0011838 -0.00013659
-0.038923  -0.0015425 -0.00015562
-0.043824  -0.0019495 -0.00017466
-0.048721  -0.0024047  -0.0001937
-0.053613   -0.002908 -0.00021274
-0.0585  -0.0034594 -0.00023178
-0.063382  -0.0040588 -0.00025081
-0.068257  -0.0047063 -0.00026985
-0.073125  -0.0054016 -0.00028889
-0.077987  -0.0061448 -0.00030793
-0.082841  -0.0069358 -0.00032697
-0.087687  -0.0077745 -0.00034601
-0.092524  -0.0086609 -0.00036505
-0.097353  -0.0095947 -0.00038408
-0.10217   -0.010576 -0.00040312
-0.10698   -0.011605 -0.00042216
-0.11178   -0.012681  -0.0004412
-0.11657   -0.013804 -0.00046024
-0.12134   -0.014974 -0.00047928
-0.12611   -0.016191 -0.00049832
-0.13086   -0.017455 -0.00051735
-0.1356   -0.018765 -0.00053639
-0.14033   -0.020122 -0.00055543
-0.14504   -0.021526 -0.00057447
-0.14974   -0.022976 -0.00059351
-0.15443   -0.024472 -0.00061255
-0.1591   -0.026014  -0.0006316
-0.16375   -0.027602 -0.00065062
-0.16839   -0.029235 -0.00066956
-0.17301   -0.030915 -0.00068824
-0.17762   -0.032641 -0.00070644
-0.18221   -0.034414 -0.00072511
-0.18678    -0.03623 -0.00075114
-0.0045838   -0.002345   0.0011723
-0.0093949  -0.0048373   0.0014368
-0.014254  -0.0074255   0.0014209
-0.019088   -0.010048   0.0013969
-0.023895   -0.012719   0.0013769
-0.028675   -0.015437   0.0013579
-0.033428   -0.018201   0.0013389
-0.038153   -0.021012   0.0013198
-0.042851    -0.02387   0.0013008
-0.04752   -0.026773   0.0012818
-0.05216   -0.029723   0.0012627
-0.056771   -0.032718   0.0012437
-0.061353   -0.035758   0.0012246
-0.065904   -0.038843   0.0012056
-0.070425   -0.041972   0.0011866
-0.074915   -0.045146   0.0011675
-0.079373   -0.048364   0.0011485
-0.0838   -0.051626   0.0011294
-0.088194   -0.054931   0.0011104
-0.092555   -0.058279   0.0010914
-0.096884    -0.06167   0.0010723
-0.10118   -0.065103   0.0010533
-0.10544   -0.068579   0.0010343
-0.10967   -0.072096   0.0010152
-0.11386   -0.075654  0.00099618
-0.11801   -0.079254  0.00097714
-0.12213   -0.082894   0.0009581
-0.12622   -0.086575  0.00093906
-0.13027   -0.090295  0.00092002
-0.13428   -0.094056  0.00090098
-0.13825   -0.097855  0.00088195
-0.14219    -0.10169  0.00086291
-0.14609    -0.10557  0.00084388
-0.14995    -0.10949  0.00082489
-0.15377    -0.11344  0.00080596
-0.15755    -0.11743  0.00078705
-0.1613    -0.12146  0.00076765
-0.165    -0.12552  0.00074568
-0.16866    -0.12962  0.00071543
-0.0022503  -0.0046206   -0.001211
-0.0045923  -0.0095036  -0.0015144
-0.0069453   -0.014482  -0.0015403
-0.0092374   -0.019482  -0.0015557
-0.011481   -0.024503   -0.001574
-0.013674   -0.029545   -0.001593
-0.015818   -0.034608   -0.001612
-0.017911   -0.039692  -0.0016311
-0.019955   -0.044797  -0.0016501
-0.021948   -0.049921  -0.0016692
-0.023891   -0.055065  -0.0016882
-0.025783   -0.060227  -0.0017072
-0.027624   -0.065408  -0.0017263
-0.029414   -0.070607  -0.0017453
-0.031153   -0.075823  -0.0017643
-0.032841   -0.081056  -0.0017834
-0.034477   -0.086306  -0.0018024
-0.036061   -0.091571  -0.0018215
-0.037594   -0.096851  -0.0018405
-0.039074    -0.10215  -0.0018595
-0.040502    -0.10746  -0.0018786
-0.041878    -0.11278  -0.0018976
-0.043202    -0.11812  -0.0019167
-0.044473    -0.12347  -0.0019357
-0.045691    -0.12883  -0.0019547
-0.046857     -0.1342  -0.0019738
-0.047969    -0.13959  -0.0019928
-0.049029    -0.14498  -0.0020118
-0.050035    -0.15039  -0.0020309
-0.050988     -0.1558  -0.0020499
-0.051888    -0.16123   -0.002069
-0.052735    -0.16666   -0.002088
-0.053528     -0.1721   -0.002107
-0.054267    -0.17755   -0.002126
-0.054953      -0.183   -0.002145
-0.055585    -0.18847  -0.0021639
-0.056161    -0.19393  -0.0021834
-0.056683    -0.19941  -0.0022056
-0.057155    -0.20489  -0.0022359
4.0765e-05  -0.0048499 -1.6817e-05
0.00011489   -0.009477 -3.8063e-05
0.00023255   -0.014368 -6.0059e-05
0.00039761   -0.019285 -7.9646e-05
0.00061122   -0.024199   -9.86e-05
0.00087332    -0.02911 -0.00011757
0.0011838   -0.034018 -0.00013659
0.0015425   -0.038923 -0.00015562
0.0019495   -0.043824 -0.00017466
0.0024047   -0.048721  -0.0001937
0.002908   -0.053613 -0.00021274
0.0034594     -0.0585 -0.00023178
0.0040588   -0.063382 -0.00025081
0.0047063   -0.068257 -0.00026985
0.0054016   -0.073125 -0.00028889
0.0061448   -0.077987 -0.00030793
0.0069358   -0.082841 -0.00032697
0.0077745   -0.087687 -0.00034601
0.0086609   -0.092524 -0.00036505
0.0095947   -0.097353 -0.00038408
0.010576    -0.10217 -0.00040312
0.011605    -0.10698 -0.00042216
0.012681    -0.11178  -0.0004412
0.013804    -0.11657 -0.00046024
0.014974    -0.12134 -0.00047928
0.016191    -0.12611 -0.00049832
0.017455    -0.13086 -0.00051735
0.018765     -0.1356 -0.00053639
0.020122    -0.14033 -0.00055543
0.021526    -0.14504 -0.00057447
0.022976    -0.14974 -0.00059351
0.024472    -0.15443 -0.00061255