# vtk DataFile Version 3.0
VTK Output
ASCII
DATASET UNSTRUCTURED_GRID

POINTS 1025 float
-0.5        -0.5           0
0.5        -0.5           0
0.5         0.5           0
-0.5         0.5           0
-0.5         -0.5           10
0.5         -0.5           10
0.5          0.5           10
-0.5          0.5           10
-0.25        -0.5           0
-1.3751e-12        -0.5           0
0.25        -0.5           0
0.5       -0.25           0
0.5 -1.3751e-12           0
0.5        0.25           0
0.25         0.5           0
1.3751e-12         0.5           0
-0.25         0.5           0
-0.5        0.25           0
-0.5  1.3751e-12           0
-0.5       -0.25           0
-0.25         -0.5           10
-1.37512e-12         -0.5           10
0.25         -0.5           10
0.5        -0.25           10
0.5 -1.37512e-12           10
0.5         0.25           10
0.25          0.5           10
1.37512e-12          0.5           10
-0.25          0.5           10
-0.5         0.25           10
-0.5  1.37512e-12           10
-0.5        -0.25           10
-0.5        -0.5        0.25
-0.5        -0.5         0.5
-0.5        -0.5        0.75
-0.5        -0.5           1
-0.5        -0.5        1.25
-0.5        -0.5         1.5
-0.5        -0.5        1.75
-0.5        -0.5           2
-0.5        -0.5        2.25
-0.5        -0.5         2.5
-0.5        -0.5        2.75
-0.5        -0.5           3
-0.5        -0.5        3.25
-0.5        -0.5         3.5
-0.5        -0.5        3.75
-0.5        -0.5           4
-0.5        -0.5        4.25
-0.5        -0.5         4.5
-0.5        -0.5        4.75
-0.5        -0.5           5
-0.5        -0.5        5.25
-0.5        -0.5         5.5
-0.5        -0.5        5.75
-0.5        -0.5           6
-0.5        -0.5        6.25
-0.5        -0.5         6.5
-0.5        -0.5        6.75
-0.5        -0.5           7
-0.5        -0.5        7.25
-0.5        -0.5         7.5
-0.5        -0.5        7.75
-0.5        -0.5           8
-0.5        -0.5        8.25
-0.5        -0.5         8.5
-0.5        -0.5        8.75
-0.5        -0.5           9
-0.5        -0.5        9.25
-0.5        -0.5         9.5
-0.5        -0.5        9.75
0.5        -0.5        0.25
0.5        -0.5         0.5
0.5        -0.5        0.75
0.5        -0.5           1
0.5        -0.5        1.25
0.5        -0.5         1.5
0.5        -0.5        1.75
0.5        -0.5           2
0.5        -0.5        2.25
0.5        -0.5         2.5
0.5        -0.5        2.75
0.5        -0.5           3
0.5        -0.5        3.25
0.5        -0.5         3.5
0.5        -0.5        3.75
0.5        -0.5           4
0.5        -0.5        4.25
0.5        -0.5         4.5
0.5        -0.5        4.75
0.5        -0.5           5
0.5        -0.5        5.25
0.5        -0.5         5.5
0.5        -0.5        5.75
0.5        -0.5           6
0.5        -0.5        6.25
0.5        -0.5         6.5
0.5        -0.5        6.75
0.5        -0.5           7
0.5        -0.5        7.25
0.5        -0.5         7.5
0.5        -0.5        7.75
0.5        -0.5           8
0.5        -0.5        8.25
0.5        -0.5         8.5
0.5        -0.5        8.75
0.5        -0.5           9
0.5        -0.5        9.25
0.5        -0.5         9.5
0.5        -0.5        9.75
0.5         0.5        0.25
0.5         0.5         0.5
0.5         0.5        0.75
0.5         0.5           1
0.5         0.5        1.25
0.5         0.5         1.5
0.5         0.5        1.75
0.5         0.5           2
0.5         0.5        2.25
0.5         0.5         2.5
0.5         0.5        2.75
0.5         0.5           3
0.5         0.5        3.25
0.5         0.5         3.5
0.5         0.5        3.75
0.5         0.5           4
0.5         0.5        4.25
0.5         0.5         4.5
0.5         0.5        4.75
0.5         0.5           5
0.5         0.5        5.25
0.5         0.5         5.5
0.5         0.5        5.75
0.5         0.5           6
0.5         0.5        6.25
0.5         0.5         6.5
0.5         0.5        6.75
0.5         0.5           7
0.5         0.5        7.25
0.5         0.5         7.5
0.5         0.5        7.75
0.5         0.5           8
0.5         0.5        8.25
0.5         0.5         8.5
0.5         0.5        8.75
0.5         0.5           9
0.5         0.5        9.25
0.5         0.5         9.5
0.5         0.5        9.75
-0.5         0.5        0.25
-0.5         0.5         0.5
-0.5         0.5        0.75
-0.5         0.5           1
-0.5         0.5        1.25
-0.5         0.5         1.5
-0.5         0.5        1.75
-0.5         0.5           2
-0.5         0.5        2.25
-0.5         0.5         2.5
-0.5         0.5        2.75
-0.5         0.5           3
-0.5         0.5        3.25
-0.5         0.5         3.5
-0.5         0.5        3.75
-0.5         0.5           4
-0.5         0.5        4.25
-0.5         0.5         4.5
-0.5         0.5        4.75
-0.5         0.5           5
-0.5         0.5        5.25
-0.5         0.5         5.5
-0.5         0.5        5.75
-0.5         0.5           6
-0.5         0.5        6.25
-0.5         0.5         6.5
-0.5         0.5        6.75
-0.5         0.5           7
-0.5         0.5        7.25
-0.5         0.5         7.5
-0.5         0.5        7.75
-0.5         0.5           8
-0.5         0.5        8.25
-0.5         0.5         8.5
-0.5         0.5        8.75
-0.5         0.5           9
-0.5         0.5        9.25
-0.5         0.5         9.5
-0.5         0.5        9.75
-0.25       -0.25           0
-0.25  6.8756e-13           0
-0.25        0.25           0
-6.8756e-13       -0.25           0
-3.7821e-24           0           0
6.8756e-13        0.25           0
0.25       -0.25           0
0.25 -6.8756e-13           0
0.25        0.25           0
-0.25        -0.5        0.25
-0.25        -0.5         0.5
-0.25        -0.5        0.75
-0.25        -0.5           1
-0.25        -0.5        1.25
-0.25        -0.5         1.5
-0.25        -0.5        1.75
-0.25        -0.5           2
-0.25        -0.5        2.25
-0.25        -0.5         2.5
-0.25        -0.5        2.75
-0.25        -0.5           3
-0.25        -0.5        3.25
-0.25        -0.5         3.5
-0.25        -0.5        3.75
-0.25        -0.5           4
-0.25        -0.5        4.25
-0.25        -0.5         4.5
-0.25        -0.5        4.75
-0.25        -0.5           5
-0.25        -0.5        5.25
-0.25        -0.5         5.5
-0.25        -0.5        5.75
-0.25        -0.5           6
-0.25        -0.5        6.25
-0.25        -0.5         6.5
-0.25        -0.5        6.75
-0.25        -0.5           7
-0.25        -0.5        7.25
-0.25        -0.5         7.5
-0.25        -0.5        7.75
-0.25        -0.5           8
-0.25        -0.5        8.25
-0.25        -0.5         8.5
-0.25        -0.5        8.75
-0.25        -0.5           9
-0.25        -0.5        9.25
-0.25        -0.5         9.5
-0.25        -0.5        9.75
-1.3751e-12        -0.5        0.25
-1.3751e-12        -0.5         0.5
-1.3751e-12        -0.5        0.75
-1.3751e-12        -0.5           1
-1.3751e-12        -0.5        1.25
-1.3751e-12        -0.5         1.5
-1.3751e-12        -0.5        1.75
-1.3751e-12        -0.5           2
-1.3751e-12        -0.5        2.25
-1.3751e-12        -0.5         2.5
-1.3751e-12        -0.5        2.75
-1.3751e-12        -0.5           3
-1.3751e-12        -0.5        3.25
-1.3751e-12        -0.5         3.5
-1.3751e-12        -0.5        3.75
-1.3751e-12        -0.5           4
-1.3751e-12        -0.5        4.25
-1.3751e-12        -0.5         4.5
-1.3751e-12        -0.5        4.75
-1.3751e-12        -0.5           5
-1.3751e-12        -0.5        5.25
-1.3751e-12        -0.5         5.5
-1.3751e-12        -0.5        5.75
-1.3751e-12        -0.5           6
-1.3751e-12        -0.5        6.25
-1.3751e-12        -0.5         6.5
-1.3751e-12        -0.5        6.75
-1.3751e-12        -0.5           7
-1.3751e-12        -0.5        7.25
-1.3751e-12        -0.5         7.5
-1.3751e-12        -0.5        7.75
-1.3751e-12        -0.5           8
-1.3751e-12        -0.5        8.25
-1.3751e-12        -0.5         8.5
-1.3751e-12        -0.5        8.75
-1.3751e-12        -0.5           9
-1.3751e-12        -0.5        9.25
-1.3751e-12        -0.5         9.5
-1.3751e-12        -0.5        9.75
0.25        -0.5        0.25
0.25        -0.5         0.5
0.25        -0.5        0.75
0.25        -0.5           1
0.25        -0.5        1.25
0.25        -0.5         1.5
0.25        -0.5        1.75
0.25        -0.5           2
0.25        -0.5        2.25
0.25        -0.5         2.5
0.25        -0.5        2.75
0.25        -0.5           3
0.25        -0.5        3.25
0.25        -0.5         3.5
0.25        -0.5        3.75
0.25        -0.5           4
0.25        -0.5        4.25
0.25        -0.5         4.5
0.25        -0.5        4.75
0.25        -0.5           5
0.25        -0.5        5.25
0.25        -0.5         5.5
0.25        -0.5        5.75
0.25        -0.5           6
0.25        -0.5        6.25
0.25        -0.5         6.5
0.25        -0.5        6.75
0.25        -0.5           7
0.25        -0.5        7.25
0.25        -0.5         7.5
0.25        -0.5        7.75
0.25        -0.5           8
0.25        -0.5        8.25
0.25        -0.5         8.5
0.25        -0.5        8.75
0.25        -0.5           9
0.25        -0.5        9.25
0.25        -0.5         9.5
0.25        -0.5        9.75
0.5       -0.25        0.25
0.5       -0.25         0.5
0.5       -0.25        0.75
0.5       -0.25           1
0.5       -0.25        1.25
0.5       -0.25         1.5
0.5       -0.25        1.75
0.5       -0.25           2
0.5       -0.25        2.25
0.5       -0.25         2.5
0.5       -0.25        2.75
0.5       -0.25           3
0.5       -0.25        3.25
0.5       -0.25         3.5
0.5       -0.25        3.75
0.5       -0.25           4
0.5       -0.25        4.25
[...]
POINT_DATA 1025
VECTORS displacement double
0  0  0
0  0  0
0  0  0
0  0  0
1.0879     0.10715    -0.34207
-0.10715      1.0879    -0.34207
-1.0879    -0.10715    -0.34207
0.10715     -1.0879    -0.34207
0  0  0
0  0  0
0  0  0
0  0  0
0  0  0
0  0  0
0  0  0
0  0  0
0  0  0
0  0  0
0  0  0
0  0  0
0.78917     0.35235    -0.35763
0.49039     0.59755    -0.31965
0.19162     0.84274    -0.29198
-0.35235     0.78917    -0.35763
-0.59755     0.49039    -0.31965
-0.84274     0.19162    -0.29198
-0.78917    -0.35235    -0.35763
-0.49039    -0.59755    -0.31965
-0.19162    -0.84274    -0.29198
0.35235    -0.78917    -0.35763
0.59755    -0.49039    -0.31965
0.84274    -0.19162    -0.29198
0.10066   -0.065178  -0.0026148
0.22408    -0.13185   -0.013277
0.3576     -0.1735   -0.022597
0.4959    -0.18834   -0.030928
0.6339    -0.17534   -0.038689
0.76626    -0.13502   -0.046218
0.8878   -0.069032    -0.05371
0.99368    0.019931   -0.061215
1.0797     0.12827   -0.068735
1.1422      0.2516    -0.07626
1.1789     0.38495   -0.083787
1.1882     0.52295   -0.091313
1.1698     0.66002   -0.098839
1.1243     0.79063    -0.10637
1.0536     0.90952    -0.11389
0.9606      1.0119    -0.12142
0.84901      1.0936    -0.12894
0.72335      1.1514    -0.13647
0.58867      1.1829    -0.14399
0.45042      1.1868    -0.15152
0.31417      1.1631    -0.15905
0.18541      1.1126    -0.16657
0.06935      1.0373     -0.1741
-0.029341     0.94043    -0.18162
-0.10668     0.82577    -0.18915
-0.15954     0.69796    -0.19668
-0.1858     0.56217     -0.2042
-0.18439     0.42387    -0.21173
-0.15537     0.28864    -0.21925
-0.09991     0.16193    -0.22678
-0.020252    0.048864    -0.23431
0.080382   -0.046006    -0.24184
0.19792    -0.11885    -0.24934
0.32759    -0.16673    -0.25676
0.46419    -0.18762    -0.26402
0.60245    -0.18036    -0.27128
0.73741    -0.14444    -0.27958
0.86482   -0.080418    -0.29196
0.98145   0.0078172    -0.31217
0.065178     0.10066  -0.0026148
0.13185     0.22408   -0.013277
0.1735      0.3576   -0.022597
0.18834      0.4959   -0.030928
0.17534      0.6339   -0.038689
0.13502     0.76626   -0.046218
0.069032      0.8878    -0.05371
-0.019931     0.99368   -0.061215
-0.12827      1.0797   -0.068735
-0.2516      1.1422    -0.07626
-0.38495      1.1789   -0.083787
-0.52295      1.1882   -0.091313
-0.66002      1.1698   -0.098839
-0.79063      1.1243    -0.10637
-0.90952      1.0536    -0.11389
-1.0119      0.9606    -0.12142
-1.0936     0.84901    -0.12894
-1.1514     0.72335    -0.13647
-1.1829     0.58867    -0.14399
-1.1868     0.45042    -0.15152
-1.1631     0.31417    -0.15905
-1.1126     0.18541    -0.16657
-1.0373     0.06935     -0.1741
-0.94043   -0.029341    -0.18162
-0.82577    -0.10668    -0.18915
-0.69796    -0.15954    -0.19668
-0.56217     -0.1858     -0.2042
-0.42387    -0.18439    -0.21173
-0.28864    -0.15537    -0.21925
-0.16193    -0.09991    -0.22678
-0.048864   -0.020252    -0.23431
0.046006    0.080382    -0.24184
0.11885     0.19792    -0.24934
0.16673     0.32759    -0.25676
0.18762     0.46419    -0.26402
0.18036     0.60245    -0.27128
0.14444     0.73741    -0.27958
0.080418     0.86482    -0.29196
-0.0078172     0.98145    -0.31217
-0.10066    0.065178  -0.0026148
-0.22408     0.13185   -0.013277
-0.3576      0.1735   -0.022597
-0.4959     0.18834   -0.030928
-0.6339     0.17534   -0.038689
-0.76626     0.13502   -0.046218
-0.8878    0.069032    -0.05371
-0.99368   -0.019931   -0.061215
-1.0797    -0.12827   -0.068735
-1.1422     -0.2516    -0.07626
-1.1789    -0.38495   -0.083787
-1.1882    -0.52295   -0.091313
-1.1698    -0.66002   -0.098839
-1.1243    -0.79063    -0.10637
-1.0536    -0.90952    -0.11389
-0.9606     -1.0119    -0.12142
-0.84901     -1.0936    -0.12894
-0.72335     -1.1514    -0.13647
-0.58867     -1.1829    -0.14399
-0.45042     -1.1868    -0.15152
-0.31417     -1.1631    -0.15905
-0.18541     -1.1126    -0.16657
-0.06935     -1.0373     -0.1741
0.029341    -0.94043    -0.18162
0.10668    -0.82577    -0.18915
0.15954    -0.69796    -0.19668
0.1858    -0.56217     -0.2042
0.18439    -0.42387    -0.21173
0.15537    -0.28864    -0.21925
0.09991    -0.16193    -0.22678
0.020252   -0.048864    -0.23431
-0.080382    0.046006    -0.24184
-0.19792     0.11885    -0.24934
-0.32759     0.16673    -0.25676
-0.46419     0.18762    -0.26402
-0.60245     0.18036    -0.27128
-0.73741     0.14444    -0.27958
-0.86482    0.080418    -0.29196
-0.98145  -0.0078172    -0.31217
-0.065178    -0.10066  -0.0026148
-0.13185    -0.22408   -0.013277
-0.1735     -0.3576   -0.022597
-0.18834     -0.4959   -0.030928
-0.17534     -0.6339   -0.038689
-0.13502    -0.76626   -0.046218
-0.069032     -0.8878    -0.05371
0.019931    -0.99368   -0.061215
0.12827     -1.0797   -0.068735
0.2516     -1.1422    -0.07626
0.38495     -1.1789   -0.083787
0.52295     -1.1882   -0.091313
0.66002     -1.1698   -0.098839
0.79063     -1.1243    -0.10637
0.90952     -1.0536    -0.11389
1.0119     -0.9606    -0.12142
1.0936    -0.84901    -0.12894
1.1514    -0.72335    -0.13647
1.1829    -0.58867    -0.14399
1.1868    -0.45042    -0.15152
1.1631    -0.31417    -0.15905
1.1126    -0.18541    -0.16657
1.0373    -0.06935     -0.1741
0.94043    0.029341    -0.18162
0.82577     0.10668    -0.18915
0.69796     0.15954    -0.19668
0.56217      0.1858     -0.2042
0.42387     0.18439    -0.21173
0.28864     0.15537    -0.21925
0.16193     0.09991    -0.22678
0.048864    0.020252    -0.23431
-0.046006   -0.080382    -0.24184
-0.11885    -0.19792    -0.24934
-0.16673    -0.32759    -0.25676
-0.18762    -0.46419    -0.26402
-0.18036    -0.60245    -0.27128
-0.14444    -0.73741    -0.27958
-0.080418    -0.86482    -0.29196
0.0078172    -0.98145    -0.31217
0  0  0
0  0  0
0  0  0
0  0  0
0  0  0
0  0  0
0  0  0
0  0  0
0  0  0
0.09421   -0.025927   -0.030523
0.19972   -0.042287     -0.0444
0.3099   -0.040863   -0.053478
0.41744   -0.017812    -0.06135
0.51782    0.026069   -0.068867
0.6072    0.089111   -0.076346
0.68211     0.16876   -0.083846
0.73959     0.26178   -0.091364
0.77731     0.36442   -0.098889
0.79377     0.47253    -0.10642
0.78829     0.58175    -0.11394
0.7611     0.68767    -0.12147
0.71329     0.78602    -0.12899
0.64678     0.87283    -0.13652
0.56428      0.9446    -0.14405
0.46909     0.99844    -0.15157
0.36506      1.0322     -0.1591
0.2564      1.0444    -0.16662
0.14747      1.0347    -0.17415
0.042685      1.0034    -0.18168
-0.05374     0.95186     -0.1892
-0.13791     0.88205    -0.19673
-0.20644     0.79683    -0.20425
-0.25655     0.69963    -0.21178
-0.28622     0.59437     -0.2193
-0.29426     0.48531    -0.22683
-0.28035     0.37685    -0.23436
-0.24504     0.27335    -0.24188
-0.18976     0.17899    -0.24941
-0.11674    0.097586    -0.25694
-0.028928    0.032412    -0.26446
0.07013   -0.013905    -0.27199
0.17642   -0.039512     -0.2795
0.28565   -0.043387    -0.28696
0.39342   -0.025294    -0.29438
0.49544    0.014462     -0.3019
0.58753    0.075366    -0.31015
0.66595     0.15632     -0.3208
0.72811     0.25193    -0.33509
0.091606    0.015207  -0.0055446
0.17978    0.044441   -0.014228
0.26699    0.090106   -0.023301
0.34407     0.15187   -0.031217
0.407     0.22771   -0.038723
0.45329     0.31454   -0.046189
0.48122     0.40885   -0.053688
0.48972     0.50685   -0.061207
0.47847     0.60457   -0.068734
0.44792     0.69807   -0.076261
0.39931     0.78359   -0.083787
0.33458     0.85766   -0.091313
0.25636     0.91731   -0.098839
0.16779     0.96012    -0.10637
0.07246     0.98437    -0.11389
-0.025797     0.98908    -0.12142
-0.12301     0.97406    -0.12894
-0.21527     0.93992    -0.13647
-0.29884     0.88803    -0.14399
-0.37035     0.82048    -0.15152
-0.42692     0.74001    -0.15905
-0.46627     0.64985    -0.16657
-0.48681     0.55365     -0.1741
-0.48772     0.45529    -0.18162
-0.46894     0.35872    -0.18915
-0.43125     0.26786    -0.19668
-0.37616     0.18637     -0.2042
-0.3059     0.11752    -0.21173
-0.2233    0.064105    -0.21925
-0.13168    0.028275    -0.22678
-0.034759    0.011474    -0.23431
0.063566    0.014374    -0.24184
0.15932    0.036843    -0.24938
0.24863    0.077954    -0.25689
0.32786     0.13608     -0.2643
0.39373     0.20914    -0.27143
0.4432     0.29495     -0.2783
0.47372     0.39139    -0.28608
0.48525      0.4948    -0.29863
0.079846    0.062032    0.016581
0.15638     0.13728    0.015133
0.22017     0.22659   0.0073012
0.2657     0.32651 -0.00074415
0.29024     0.43329  -0.0084693
0.29278     0.54267   -0.016027
0.27332     0.65028   -0.023543
0.23274     0.75182   -0.031059
0.17268      0.8432   -0.038581
0.09557     0.92074   -0.046106
0.0045204     0.98131   -0.053632
-0.096796      1.0225   -0.061158
-0.20429      1.0425   -0.068684
-0.31363      1.0407    -0.07621
-0.42041      1.0171   -0.083736
-0.52031     0.97262   -0.091262
-0.6093     0.90907   -0.098788
-0.6838     0.82902    -0.10631
-0.7408     0.73569    -0.11384
-0.778     0.63286    -0.12137
-0.7939     0.52467    -0.12889
-0.78786     0.41548    -0.13642
-0.76012      0.3097    -0.14394
-0.7118      0.2116    -0.15147
-0.64485     0.12513    -0.15899
-0.56198    0.053783    -0.16652
-0.46651  0.00043935    -0.17405
-0.36232   -0.032751    -0.18157
-0.25359    -0.04445     -0.1891
-0.14471   -0.034185    -0.19662
-0.040085  -0.0023707    -0.20415
0.056077    0.049703    -0.21169
0.13989     0.11992    -0.21921
0.20796     0.20543    -0.22671
0.25748      0.3028     -0.2341
0.28624     0.40823    -0.24131
0.29264     0.51804    -0.24854
0.27589     0.62907    -0.25703
0.2375     0.73981    -0.27123
0.025927     0.09421   -0.030523
0.042287     0.19972     -0.0444
0.040863      0.3099   -0.053478
0.017812     0.41744    -0.06135
-0.026069     0.51782   -0.068867
-0.089111      0.6072   -0.076346
-0.16876     0.68211   -0.083846
-0.26178     0.73959   -0.091364
-0.36442     0.77731   -0.098889
-0.47253     0.79377    -0.10642
-0.58175     0.78829    -0.11394
-0.68767      0.7611    -0.12147
-0.78602     0.71329    -0.12899
-0.87283     0.64678    -0.13652
-0.9446     0.56428    -0.14405
-0.99844     0.46909    -0.15157
-1.0322     0.36506     -0.1591
-1.0444      0.2564    -0.16662
-1.0347     0.14747    -0.17415
-1.0034    0.042685    -0.18168
-0.95186    -0.05374     -0.1892
-0.88205    -0.13791    -0.19673
-0.79683    -0.20644    -0.20425
-0.69963    -0.25655    -0.21178
-0.59437    -0.28622     -0.2193
-0.48531    -0.29426    -0.22683
-0.37685    -0.28035    -0.23436
-0.27335    -0.24504    -0.24188
-0.17899    -0.18976    -0.24941
-0.097586    -0.11674    -0.25694
-0.032412   -0.028928    -0.26446
0.013905     0.07013    -0.27199
0.039512     0.17642     -0.2795
0.043387     0.28565    -0.28696
0.025294     0.39342    -0.29438
-0.014462     0.49544     -0.3019
-0.075366     0.58753    -0.31015
-0.15632     0.66595     -0.3208
-0.25193     0.72811    -0.33509
-0.015207    0.091606  -0.0055446
-0.044441     0.17978   -0.014228
-0.090106     0.26699   -0.023301
-0.15187     0.34407   -0.031217
-0.22771       0.407   -0.038723
-0.31454     0.45329   -0.046189
-0.40885     0.48122   -0.053688
-0.50685     0.48972   -0.061207
-0.60457     0.47847   -0.068734
-0.69807     0.44792   -0.076261
-0.78359     0.39931   -0.083787
-0.85766     0.33458   -0.091313
-0.91731     0.25636   -0.098839
-0.96012     0.16779    -0.10637
-0.98437     0.07246    -0.11389
-0.98908   -0.025797    -0.12142
-0.97406    -0.12301    -0.12894
-0.93992    -0.21527    -0.13647
-0.88803    -0.29884    -0.14399
-0.82048    -0.37035    -0.15152
-0.74001    -0.42692    -0.15905
-0.64985    -0.46627    -0.16657
-0.55365    -0.48681     -0.1741
-0.45529    -0.48772    -0.18162
-0.35872    -0.46894    -0.18915
-0.26786    -0.43125    -0.19668
-0.18637    -0.37616     -0.2042
-0.11752     -0.3059    -0.21173
-0.064105     -0.2233    -0.21925
-0.028275    -0.13168    -0.22678
-0.011474   -0.034759    -0.23431
-0.014374    0.063566    -0.24184
-0.036843     0.15932    -0.24938
-0.077954     0.24863    -0.25689
-0.13608     0.32786     -0.2643
-0.20914     0.39373    -0.27143
-0.29495      0.4432     -0.2783
-0.39139     0.47372    -0.28608
-0.4948     0.48525    -0.29863
-0.062032    0.079846    0.016581
-0.13728     0.15638    0.015133
-0.22659     0.22017   0.0073012
-0.32651      0.2657 -0.00074415
-0.43329     0.29024  -0.0084693
-0.54267     0.29278   -0.016027
-0.65028     0.27332   -0.023543
-0.75182     0.23274   -0.031059
-0.8432     0.17268   -0.038581
-0.92074     0.09557   -0.046106
-0.98131   0.0045204   -0.053632
-1.0225   -0.096796   -0.061158
-1.0425    -0.20429   -0.068684
-1.0407    -0.31363    -0.07621
-1.0171    -0.42041   -0.083736
-0.97262    -0.52031   -0.091262
-0.90907     -0.6093   -0.098788
-0.82902     -0.6838    -0.10631
-0.73569     -0.7408    -0.11384
-0.63286      -0.778    -0.12137
-0.52467     -0.7939    -0.12889
-0.41548    -0.78786    -0.13642
-0.3097    -0.76012    -0.14394
-0.2116     -0.7118    -0.15147
-0.12513    -0.64485    -0.15899
-0.053783    -0.56198    -0.16652
-0.00043935    -0.46651    -0.17405
0.032751    -0.36232    -0.18157
0.04445    -0.25359     -0.1891
0.034185    -0.14471    -0.19662
0.0023707   -0.040085    -0.20415
-0.049703    0.056077    -0.21169
-0.11992     0.13989    -0.21921
-0.20543     0.20796    -0.22671
-0.3028     0.25748     -0.2341
-0.40823     0.28624    -0.24131
-0.51804     0.29264    -0.24854
-0.62907     0.27589    -0.25703
-0.73981      0.2375    -0.27123
-0.09421    0.025927   -0.030523
-0.19972    0.042287     -0.0444
-0.3099    0.040863   -0.053478
-0.41744    0.017812    -0.06135
-0.51782   -0.026069   -0.068867
-0.6072   -0.089111   -0.076346
-0.68211    -0.16876   -0.083846
-0.73959    -0.26178   -0.091364
-0.77731    -0.36442   -0.098889
-0.79377    -0.47253    -0.10642
-0.78829    -0.58175    -0.11394
-0.7611    -0.68767    -0.12147
-0.71329    -0.78602    -0.12899
-0.64678    -0.87283    -0.13652
-0.56428     -0.9446    -0.14405
-0.46909    -0.99844    -0.15157
-0.36506     -1.0322     -0.1591
-0.2564     -1.0444    -0.16662
-0.14747     -1.0347    -0.17415
-0.042685     -1.0034    -0.18168
0.05374    -0.95186     -0.1892
0.13791    -0.88205    -0.19673
0.20644    -0.79683    -0.20425
0.25655    -0.69963    -0.21178
0.28622    -0.59437     -0.2193
0.29426    -0.48531    -0.22683
0.28035    -0.37685    -0.23436
0.24504    -0.27335    -0.24188
0.18976    -0.17899    -0.24941
0.11674   -0.097586    -0.25694
0.028928   -0.032412    -0.26446
-0.07013    0.013905    -0.27199
-0.17642    0.039512     -0.2795
-0.28565    0.043387    -0.28696
-0.39342    0.025294    -0.29438
-0.49544   -0.014462     -0.3019
-0.58753   -0.075366    -0.31015
-0.66595    -0.15632     -0.3208
-0.72811    -0.25193    -0.33509
-0.091606   -0.015207  -0.0055446
-0.17978   -0.044441   -0.014228
-0.26699   -0.090106   -0.023301
-0.34407    -0.15187   -0.031217
-0.407    -0.22771   -0.038723
-0.45329    -0.31454   -0.046189
-0.48122    -0.40885   -0.053688
-0.48972    -0.50685   -0.061207
-0.47847    -0.60457   -0.068734
-0.44792    -0.69807   -0.076261
-0.39931    -0.78359   -0.083787
-0.33458    -0.85766   -0.091313
-0.25636    -0.91731   -0.098839
-0.16779    -0.96012    -0.10637
-0.07246    -0.98437    -0.11389
0.025797    -0.98908    -0.12142
0.12301    -0.97406    -0.12894
0.21527    -0.93992    -0.13647
0.29884    -0.88803    -0.14399
0.37035    -0.82048    -0.15152
0.42692    -0.74001    -0.15905
0.46627    -0.64985    -0.16657
0.48681    -0.55365     -0.1741
0.48772    -0.45529    -0.18162
0.46894    -0.35872    -0.18915
0.43125    -0.26786    -0.19668
0.37616    -0.18637     -0.2042
0.3059    -0.11752    -0.21173
0.2233   -0.064105    -0.21925
0.13168   -0.028275    -0.22678
0.034759   -0.011474    -0.23431
-0.063566   -0.014374    -0.24184
-0.15932   -0.036843    -0.24938
-0.24863   -0.077954    -0.25689
-0.32786    -0.13608     -0.2643
-0.39373    -0.20914    -0.27143
-0.4432    -0.29495     -0.2783
-0.47372    -0.39139    -0.28608
-0.48525     -0.4948    -0.29863
-0.079846   -0.062032    0.016581
-0.15638    -0.13728    0.015133
-0.22017    -0.22659   0.0073012
-0.2657    -0.32651 -0.00074415
-0.29024    -0.43329  -0.0084693
-0.29278    -0.54267   -0.016027
-0.27332    -0.65028   -0.023543
-0.23274    -0.75182   -0.031059
-0.17268     -0.8432   -0.038581
-0.09557    -0.92074   -0.046106
-0.0045204    -0.98131   -0.053632
0.096796     -1.0225   -0.061158
0.20429     -1.0425   -0.068684
0.31363     -1.0407    -0.07621
0.42041     -1.0171   -0.083736
0.52031    -0.97262   -0.091262
0.6093    -0.90907   -0.098788
0.6838    -0.82902    -0.10631
0.7408    -0.73569    -0.11384
0.778    -0.63286    -0.12137
0.7939    -0.52467    -0.12889
0.78786    -0.41548    -0.13642
0.76012     -0.3097    -0.14394
0.7118     -0.2116    -0.15147
0.64485    -0.12513    -0.15899
0.56198   -0.053783    -0.16652
0.46651 -0.00043935    -0.17405
0.36232    0.032751    -0.18157
0.25359     0.04445     -0.1891
0.14471    0.034185    -0.19662
0.040085   0.0023707    -0.20415
-0.056077   -0.049703    -0.21169
-0.13989    -0.11992    -0.21921
-0.20796    -0.20543    -0.22671
-0.25748     -0.3028     -0.2341
-0.28624    -0.40823    -0.24131
-0.29264    -0.51804    -0.24854
-0.27589    -0.62907    -0.25703
-0.2375    -0.73981    -0.27123
-0.025927    -0.09421   -0.030523
-0.042287    -0.19972     -0.0444
-0.040863     -0.3099   -0.053478
-0.017812    -0.41744    -0.06135
0.026069    -0.51782   -0.068867
0.089111     -0.6072   -0.076346
0.16876    -0.68211   -0.083846
0.26178    -0.73959   -0.091364
0.36442    -0.77731   -0.098889
0.47253    -0.79377    -0.10642
0.58175    -0.78829    -0.11394
0.68767     -0.7611    -0.12147
0.78602    -0.71329    -0.12899
0.87283    -0.64678    -0.13652
0.9446    -0.56428    -0.14405
0.99844    -0.46909    -0.15157
1.0322    -0.36506     -0.1591
1.0444     -0.2564    -0.16662
1.0347    -0.14747    -0.17415
1.0034   -0.042685    -0.18168
0.95186     0.05374     -0.1892
0.88205     0.13791    -0.19673
0.79683     0.20644    -0.20425
0.69963     0.25655    -0.21178
0.59437     0.28622     -0.2193
0.48531     0.29426    -0.22683
0.37685     0.28035    -0.23436
0.27335     0.24504    -0.24188
0.17899     0.18976    -0.24941
0.097586     0.11674    -0.25694
0.032412    0.028928    -0.26446
-0.013905    -0.07013    -0.27199
-0.039512    -0.17642     -0.2795
-0.043387    -0.28565    -0.28696
-0.025294    -0.39342    -0.29438
0.014462    -0.49544     -0.3019
0.075366    -0.58753    -0.31015
0.15632    -0.66595     -0.3208
0.25193    -0.72811    -0.33509
0.015207   -0.091606  -0.0055446
0.044441    -0.17978   -0.014228
0.090106    -0.26699   -0.023301
0.15187    -0.34407   -0.031217
0.22771      -0.407   -0.038723
0.31454    -0.45329   -0.046189
0.40885    -0.48122   -0.053688
0.50685    -0.48972   -0.061207
0.60457    -0.47847   -0.068734
0.69807    -0.44792   -0.076261
0.78359    -0.39931   -0.083787
0.85766    -0.33458   -0.091313
0.91731    -0.25636   -0.098839
0.96012    -0.16779    -0.10637
0.98437    -0.07246    -0.11389
0.98908    0.025797    -0.12142
0.97406     0.12301    -0.12894
0.93992     0.21527    -0.13647
0.88803     0.29884    -0.14399
0.82048     0.37035    -0.15152
0.74001     0.42692    -0.15905
0.64985     0.46627    -0.16657
0.55365     0.48681     -0.1741
0.45529     0.48772    -0.18162
0.35872     0.46894    -0.18915
0.26786     0.43125    -0.19668
0.18637     0.37616     -0.2042
0.11752      0.3059    -0.21173
0.064105      0.2233    -0.21925
0.028275     0.13168    -0.22678
0.011474    0.034759    -0.23431
0.014374   -0.063566    -0.24184
0.036843    -0.15932    -0.24938
0.077954    -0.24863    -0.25689
0.13608    -0.32786     -0.2643
0.20914    -0.39373    -0.27143
0.29495     -0.4432     -0.2783
0.39139    -0.47372    -0.28608
0.4948    -0.48525    -0.29863
0.062032   -0.079846    0.016581
0.13728    -0.15638    0.015133
0.22659    -0.22017   0.0073012
0.32651     -0.2657 -0.00074415
0.43329    -0.29024  -0.0084693
0.54267    -0.29278   -0.016027