# vtk DataFile Version 3.0
VTK Output
ASCII
DATASET UNSTRUCTURED_GRID

POINTS 1025 float
-0.5        -0.5           0
0.5        -0.5           0
0.5         0.5           0
-0.5         0.5           0
-0.5         -0.5           10
0.5         -0.5           10
0.5          0.5           10
-0.5          0.5           10
-0.25        -0.5           0
-1.3751e-12        -0.5           0
0.25        -0.5           0
0.5       -0.25           0
0.5 -1.3751e-12           0
0.5        0.25           0
0.25         0.5           0
1.3751e-12         0.5           0
-0.25         0.5           0
-0.5        0.25           0
-0.5  1.3751e-12           0
-0.5       -0.25           0
-0.25         -0.5           10
-1.37512e-12         -0.5           10
0.25         -0.5           10
0.5        -0.25           10
0.5 -1.37512e-12           10
0.5         0.25           10
0.25          0.5           10
1.37512e-12          0.5           10
-0.25          0.5           10
-0.5         0.25           10
-0.5  1.37512e-12           10
-0.5        -0.25           10
-0.5        -0.5        0.25
-0.5        -0.5         0.5
-0.5        -0.5        0.75
-0.5        -0.5           1
-0.5        -0.5        1.25
-0.5        -0.5         1.5
-0.5        -0.5        1.75
-0.5        -0.5           2
-0.5        -0.5        2.25
-0.5        -0.5         2.5
-0.5        -0.5        2.75
-0.5        -0.5           3
-0.5        -0.5        3.25
-0.5        -0.5         3.5
-0.5        -0.5        3.75
-0.5        -0.5           4
-0.5        -0.5        4.25
-0.5        -0.5         4.5
-0.5        -0.5        4.75
-0.5        -0.5           5
-0.5        -0.5        5.25
-0.5        -0.5         5.5
-0.5        -0.5        5.75
-0.5        -0.5           6
-0.5        -0.5        6.25
-0.5        -0.5         6.5
-0.5        -0.5        6.75
-0.5        -0.5           7
-0.5        -0.5        7.25
-0.5        -0.5         7.5
-0.5        -0.5        7.75
-0.5        -0.5           8
-0.5        -0.5        8.25
-0.5        -0.5         8.5
-0.5        -0.5        8.75
-0.5        -0.5           9
-0.5        -0.5        9.25
-0.5        -0.5         9.5
-0.5        -0.5        9.75
0.5        -0.5        0.25
0.5        -0.5         0.5
0.5        -0.5        0.75
0.5        -0.5           1
0.5        -0.5        1.25
0.5        -0.5         1.5
0.5        -0.5        1.75
0.5        -0.5           2
0.5        -0.5        2.25
0.5        -0.5         2.5
0.5        -0.5        2.75
0.5        -0.5           3
0.5        -0.5        3.25
0.5        -0.5         3.5
0.5        -0.5        3.75
0.5        -0.5           4
0.5        -0.5        4.25
0.5        -0.5         4.5
0.5        -0.5        4.75
0.5        -0.5           5
0.5        -0.5        5.25
0.5        -0.5         5.5
0.5        -0.5        5.75
0.5        -0.5           6
0.5        -0.5        6.25
0.5        -0.5         6.5
0.5        -0.5        6.75
0.5        -0.5           7
0.5        -0.5        7.25
0.5        -0.5         7.5
0.5        -0.5        7.75
0.5        -0.5           8
0.5        -0.5        8.25
0.5        -0.5         8.5
0.5        -0.5        8.75
0.5        -0.5           9
0.5        -0.5        9.25
0.5        -0.5         9.5
0.5        -0.5        9.75
0.5         0.5        0.25
0.5         0.5         0.5
0.5         0.5        0.75
0.5         0.5           1
0.5         0.5        1.25
0.5         0.5         1.5
0.5         0.5        1.75
0.5         0.5           2
0.5         0.5        2.25
0.5         0.5         2.5
0.5         0.5        2.75
0.5         0.5           3
0.5         0.5        3.25
0.5         0.5         3.5
0.5         0.5        3.75
0.5         0.5           4
0.5         0.5        4.25
0.5         0.5         4.5
0.5         0.5        4.75
0.5         0.5           5
0.5         0.5        5.25
0.5         0.5         5.5
0.5         0.5        5.75
0.5         0.5           6
0.5         0.5        6.25
0.5         0.5         6.5
0.5         0.5        6.75
0.5         0.5           7
0.5         0.5        7.25
0.5         0.5         7.5
0.5         0.5        7.75
0.5         0.5           8
0.5         0.5        8.25
0.5         0.5         8.5
0.5         0.5        8.75
0.5         0.5           9
0.5         0.5        9.25
0.5         0.5         9.5
0.5         0.5        9.75
-0.5         0.5        0.25
-0.5         0.5         0.5
-0.5         0.5        0.75
-0.5         0.5           1
-0.5         0.5        1.25
-0.5         0.5         1.5
-0.5         0.5        1.75
-0.5         0.5           2
-0.5         0.5        2.25
-0.5         0.5         2.5
-0.5         0.5        2.75
-0.5         0.5           3
-0.5         0.5        3.25
-0.5         0.5         3.5
-0.5         0.5        3.75
-0.5         0.5           4
-0.5         0.5        4.25
-0.5         0.5         4.5
-0.5         0.5        4.75
-0.5         0.5           5
-0.5         0.5        5.25
-0.5         0.5         5.5
-0.5         0.5        5.75
-0.5         0.5           6
-0.5         0.5        6.25
-0.5         0.5         6.5
-0.5         0.5        6.75
-0.5         0.5           7
-0.5         0.5        7.25
-0.5         0.5         7.5
-0.5         0.5        7.75
-0.5         0.5           8
-0.5         0.5        8.25
-0.5         0.5         8.5
-0.5         0.5        8.75
-0.5         0.5           9
-0.5         0.5        9.25
-0.5         0.5         9.5
-0.5         0.5        9.75
-0.25       -0.25           0
-0.25  6.8756e-13           0
-0.25        0.25           0
-6.8756e-13       -0.25           0
-3.7821e-24           0           0
6.8756e-13        0.25           0
0.25       -0.25           0
0.25 -6.8756e-13           0
0.25        0.25           0
-0.25        -0.5        0.25
-0.25        -0.5         0.5
-0.25        -0.5        0.75
-0.25        -0.5           1
-0.25        -0.5        1.25
-0.25        -0.5         1.5
-0.25        -0.5        1.75
-0.25        -0.5           2
-0.25        -0.5        2.25
-0.25        -0.5         2.5
-0.25        -0.5        2.75
-0.25        -0.5           3
-0.25        -0.5        3.25
-0.25        -0.5         3.5
-0.25        -0.5        3.75
-0.25        -0.5           4
-0.25        -0.5        4.25
-0.25        -0.5         4.5
-0.25        -0.5        4.75
-0.25        -0.5           5
-0.25        -0.5        5.25
-0.25        -0.5         5.5
-0.25        -0.5        5.75
-0.25        -0.5           6
-0.25        -0.5        6.25
-0.25        -0.5         6.5
-0.25        -0.5        6.75
-0.25        -0.5           7
-0.25        -0.5        7.25
-0.25        -0.5         7.5
-0.25        -0.5        7.75
-0.25        -0.5           8
-0.25        -0.5        8.25
-0.25        -0.5         8.5
-0.25        -0.5        8.75
-0.25        -0.5           9
-0.25        -0.5        9.25
-0.25        -0.5         9.5
-0.25        -0.5        9.75
-1.3751e-12        -0.5        0.25
-1.3751e-12        -0.5         0.5
-1.3751e-12        -0.5        0.75
-1.3751e-12        -0.5           1
-1.3751e-12        -0.5        1.25
-1.3751e-12        -0.5         1.5
-1.3751e-12        -0.5        1.75
-1.3751e-12        -0.5           2
-1.3751e-12        -0.5        2.25
-1.3751e-12        -0.5         2.5
-1.3751e-12        -0.5        2.75
-1.3751e-12        -0.5           3
-1.3751e-12        -0.5        3.25
-1.3751e-12        -0.5         3.5
-1.3751e-12        -0.5        3.75
-1.3751e-12        -0.5           4
-1.3751e-12        -0.5        4.25
-1.3751e-12        -0.5         4.5
-1.3751e-12        -0.5        4.75
-1.3751e-12        -0.5           5
-1.3751e-12        -0.5        5.25
-1.3751e-12        -0.5         5.5
-1.3751e-12        -0.5        5.75
-1.3751e-12        -0.5           6
-1.3751e-12        -0.5        6.25
-1.3751e-12        -0.5         6.5
-1.3751e-12        -0.5        6.75
-1.3751e-12        -0.5           7
-1.3751e-12        -0.5        7.25
-1.3751e-12        -0.5         7.5
-1.3751e-12        -0.5        7.75
-1.3751e-12        -0.5           8
-1.3751e-12        -0.5        8.25
-1.3751e-12        -0.5         8.5
-1.3751e-12        -0.5        8.75
-1.3751e-12        -0.5           9
-1.3751e-12        -0.5        9.25
-1.3751e-12        -0.5         9.5
-1.3751e-12        -0.5        9.75
0.25        -0.5        0.25
0.25        -0.5         0.5
0.25        -0.5        0.75
0.25        -0.5           1
0.25        -0.5        1.25
0.25        -0.5         1.5
0.25        -0.5        1.75
0.25        -0.5           2
0.25        -0.5        2.25
0.25        -0.5         2.5
0.25        -0.5        2.75
0.25        -0.5           3
0.25        -0.5        3.25
0.25        -0.5         3.5
0.25        -0.5        3.75
0.25        -0.5           4
0.25        -0.5        4.25
0.25        -0.5         4.5
0.25        -0.5        4.75
0.25        -0.5           5
0.25        -0.5        5.25
0.25        -0.5         5.5
0.25        -0.5        5.75
0.25        -0.5           6
0.25        -0.5        6.25
0.25        -0.5         6.5
0.25        -0.5        6.75
0.25        -0.5           7
0.25        -0.5        7.25
0.25        -0.5         7.5
0.25        -0.5        7.75
0.25        -0.5           8
0.25        -0.5        8.25
0.25        -0.5         8.5
0.25        -0.5        8.75
0.25        -0.5           9
0.25        -0.5        9.25
0.25        -0.5         9.5
0.25        -0.5        9.75
0.5       -0.25        0.25
0.5       -0.25         0.5
0.5       -0.25        0.75
0.5       -0.25           1
0.5       -0.25        1.25
0.5       -0.25         1.5
0.5       -0.25        1.75
0.5       -0.25           2
0.5       -0.25        2.25
0.5       -0.25         2.5
0.5       -0.25        2.75
0.5       -0.25           3
0.5       -0.25        3.25
0.5       -0.25         3.5
0.5       -0.25        3.75
0.5       -0.25           4
0.5       -0.25        4.25
[...]
POINT_DATA 1025
VECTORS displacement double
0  0  0
0  0  0
0  0  0
0  0  0
1  3.8858e-16    -0.32614
-6.1062e-16           1    -0.32614
-1 -1.4294e-15    -0.32614
1.1102e-15          -1    -0.32614
0  0  0
0  0  0
0  0  0
0  0  0
0  0  0
0  0  0
0  0  0
0  0  0
0  0  0
0  0  0
0  0  0
0  0  0
0.75        0.25    -0.34172
0.5         0.5    -0.30488
0.25        0.75    -0.27787
-0.25        0.75    -0.34172
-0.5         0.5    -0.30488
-0.75        0.25    -0.27787
-0.75       -0.25    -0.34172
-0.5        -0.5    -0.30488
-0.25       -0.75    -0.27787
0.25       -0.75    -0.34172
0.5        -0.5    -0.30488
0.75       -0.25    -0.27787
0.098102   -0.064219  -0.0025249
0.21835    -0.13027    -0.01274
0.34832    -0.17243   -0.021609
0.48318    -0.18908   -0.029543
0.61823     -0.1792   -0.036947
0.74853    -0.14315   -0.044135
0.86921   -0.082344   -0.051289
0.9757  0.00084664   -0.058456
1.0639     0.10322   -0.065635
1.1305     0.22083   -0.072819
1.1728     0.34917   -0.080005
1.1893      0.4833    -0.08719
1.1793     0.61808   -0.094375
1.1433     0.74831    -0.10156
1.0825     0.86901    -0.10875
0.99931     0.97554    -0.11593
0.89696      1.0638    -0.12312
0.77937      1.1304     -0.1303
0.65104      1.1728    -0.13749
0.51692      1.1893    -0.14467
0.38214      1.1794    -0.15186
0.25189      1.1433    -0.15904
0.13117      1.0826    -0.16623
0.024622     0.99946    -0.17341
-0.063667     0.89714     -0.1806
-0.1303     0.77957    -0.18778
-0.17273     0.65126    -0.19497
-0.18931     0.51714    -0.20215
-0.17941     0.38235    -0.20934
-0.14341     0.25209    -0.21652
-0.082703     0.13135    -0.22371
0.00038225    0.024774     -0.2309
0.10263   -0.063548    -0.23806
0.22011    -0.13021    -0.24515
0.34833    -0.17257    -0.25209
0.48263    -0.18876    -0.25903
0.61855    -0.17753    -0.26695
0.75211    -0.13875    -0.27868
0.87978   -0.075497    -0.29778
0.064219    0.098102  -0.0025249
0.13027     0.21835    -0.01274
0.17243     0.34832   -0.021609
0.18908     0.48318   -0.029543
0.1792     0.61823   -0.036947
0.14315     0.74853   -0.044135
0.082344     0.86921   -0.051289
-0.00084664      0.9757   -0.058456
-0.10322      1.0639   -0.065635
-0.22083      1.1305   -0.072819
-0.34917      1.1728   -0.080005
-0.4833      1.1893    -0.08719
-0.61808      1.1793   -0.094375
-0.74831      1.1433    -0.10156
-0.86901      1.0825    -0.10875
-0.97554     0.99931    -0.11593
-1.0638     0.89696    -0.12312
-1.1304     0.77937     -0.1303
-1.1728     0.65104    -0.13749
-1.1893     0.51692    -0.14467
-1.1794     0.38214    -0.15186
-1.1433     0.25189    -0.15904
-1.0826     0.13117    -0.16623
-0.99946    0.024622    -0.17341
-0.89714   -0.063667     -0.1806
-0.77957     -0.1303    -0.18778
-0.65126    -0.17273    -0.19497
-0.51714    -0.18931    -0.20215
-0.38235    -0.17941    -0.20934
-0.25209    -0.14341    -0.21652
-0.13135   -0.082703    -0.22371
-0.024774  0.00038225     -0.2309
0.063548     0.10263    -0.23806
0.13021     0.22011    -0.24515
0.17257     0.34833    -0.25209
0.18876     0.48263    -0.25903
0.17753     0.61855    -0.26695
0.13875     0.75211    -0.27868
0.075497     0.87978    -0.29778
-0.098102    0.064219  -0.0025249
-0.21835     0.13027    -0.01274
-0.34832     0.17243   -0.021609
-0.48318     0.18908   -0.029543
-0.61823      0.1792   -0.036947
-0.74853     0.14315   -0.044135
-0.86921    0.082344   -0.051289
-0.9757 -0.00084664   -0.058456
-1.0639    -0.10322   -0.065635
-1.1305    -0.22083   -0.072819
-1.1728    -0.34917   -0.080005
-1.1893     -0.4833    -0.08719
-1.1793    -0.61808   -0.094375
-1.1433    -0.74831    -0.10156
-1.0825    -0.86901    -0.10875
-0.99931    -0.97554    -0.11593
-0.89696     -1.0638    -0.12312
-0.77937     -1.1304     -0.1303
-0.65104     -1.1728    -0.13749
-0.51692     -1.1893    -0.14467
-0.38214     -1.1794    -0.15186
-0.25189     -1.1433    -0.15904
-0.13117     -1.0826    -0.16623
-0.024622    -0.99946    -0.17341
0.063667    -0.89714     -0.1806
0.1303    -0.77957    -0.18778
0.17273    -0.65126    -0.19497
0.18931    -0.51714    -0.20215
0.17941    -0.38235    -0.20934
0.14341    -0.25209    -0.21652
0.082703    -0.13135    -0.22371
-0.00038225   -0.024774     -0.2309
-0.10263    0.063548    -0.23806
-0.22011     0.13021    -0.24515
-0.34833     0.17257    -0.25209
-0.48263     0.18876    -0.25903
-0.61855     0.17753    -0.26695
-0.75211     0.13875    -0.27868
-0.87978    0.075497    -0.29778
-0.064219   -0.098102  -0.0025249
-0.13027    -0.21835    -0.01274
-0.17243    -0.34832   -0.021609
-0.18908    -0.48318   -0.029543
-0.1792    -0.61823   -0.036947
-0.14315    -0.74853   -0.044135
-0.082344    -0.86921   -0.051289
0.00084664     -0.9757   -0.058456
0.10322     -1.0639   -0.065635
0.22083     -1.1305   -0.072819
0.34917     -1.1728   -0.080005
0.4833     -1.1893    -0.08719
0.61808     -1.1793   -0.094375
0.74831     -1.1433    -0.10156
0.86901     -1.0825    -0.10875
0.97554    -0.99931    -0.11593
1.0638    -0.89696    -0.12312
1.1304    -0.77937     -0.1303
1.1728    -0.65104    -0.13749
1.1893    -0.51692    -0.14467
1.1794    -0.38214    -0.15186
1.1433    -0.25189    -0.15904
1.0826    -0.13117    -0.16623
0.99946   -0.024622    -0.17341
0.89714    0.063667     -0.1806
0.77957      0.1303    -0.18778
0.65126     0.17273    -0.19497
0.51714     0.18931    -0.20215
0.38235     0.17941    -0.20934
0.25209     0.14341    -0.21652
0.13135    0.082703    -0.22371
0.024774 -0.00038225     -0.2309
-0.063548    -0.10263    -0.23806
-0.13021    -0.22011    -0.24515
-0.17257    -0.34833    -0.25209
-0.18876    -0.48263    -0.25903
-0.17753    -0.61855    -0.26695
-0.13875    -0.75211    -0.27868
-0.075497    -0.87978    -0.29778
0  0  0
0  0  0
0  0  0
0  0  0
0  0  0
0  0  0
0  0  0
0  0  0
0  0  0
0.0921   -0.025782   -0.029705
0.1951   -0.042525   -0.043061
0.30273   -0.042339   -0.051708
0.40812   -0.021489   -0.059211
0.50705    0.019338   -0.066388
0.59594    0.078673    -0.07353
0.67148     0.15422   -0.080692
0.73083     0.24306   -0.087869
0.7717     0.34178   -0.095054
0.79254     0.44658    -0.10224
0.79254     0.55343    -0.10942
0.7717     0.65822    -0.11661
0.73082     0.75694    -0.12379
0.67147     0.84579    -0.13098
0.59592     0.92136    -0.13817
0.50709     0.98074    -0.14535
0.40839      1.0217    -0.15254
0.3036      1.0425    -0.15972
0.19675      1.0426    -0.16691
0.091941      1.0218    -0.17409
-0.0067912      0.9809    -0.18128
-0.095659     0.92158    -0.18846
-0.17125     0.84606    -0.19565
-0.23066     0.75725    -0.20283
-0.2716     0.65855    -0.21002
-0.29251     0.55377     -0.2172
-0.29258     0.44692    -0.22439
-0.2718     0.34211    -0.23157
-0.23098     0.24336    -0.23876
-0.17168     0.15447    -0.24594
-0.096189    0.078859    -0.25313
-0.0074046    0.019416    -0.26031
0.091244   -0.021581    -0.26748
0.19596   -0.042565    -0.27461
0.30274   -0.042658     -0.2817
0.40761    -0.02148    -0.28888
0.50665    0.021154    -0.29673
0.59629     0.08483     -0.3068
0.67327     0.16503    -0.32034
0.089731    0.014561  -0.0053472
0.17605    0.042476   -0.013627
0.2617    0.086102   -0.022266
0.33792     0.14521   -0.029813
0.40091     0.21799   -0.036979
0.4483     0.30161   -0.044108
0.47839     0.39285   -0.051269
0.4901     0.48821   -0.058448
0.48299     0.58403   -0.065634
0.45732     0.67662    -0.07282
0.41408     0.76243   -0.080005
0.35494     0.83815    -0.08719
0.28217     0.90089   -0.094375
0.19856     0.94823    -0.10156
0.10731     0.97835    -0.10875
0.01195     0.99009    -0.11593
-0.083873     0.98301    -0.12312
-0.17647     0.95737     -0.1303
-0.2623     0.91417    -0.13749
-0.33804     0.85505    -0.14467
-0.4008      0.7823    -0.15186
-0.44817      0.6987    -0.15904
-0.47831     0.60747    -0.16623
-0.49009     0.51211    -0.17341
-0.48304     0.41628     -0.1806
-0.45743     0.32367    -0.18778
-0.41425     0.23784    -0.19497
-0.35516     0.16207    -0.20215
-0.28242    0.099287    -0.20934
-0.19884    0.051897    -0.21652
-0.10761    0.021719    -0.22371
-0.01226   0.0099084     -0.2309
0.083555    0.016906    -0.23809
0.17614    0.042427    -0.24527
0.26192    0.085527    -0.25234
0.33755      0.1448    -0.25917
0.3999     0.21873    -0.26575
0.44631     0.30579    -0.27316
0.4762     0.40259      -0.285
0.078379    0.060313     0.01633
0.15374      0.1333     0.01505
0.21705     0.21983    0.007574
0.26308     0.31671 -9.8682e-05
0.28923     0.42051  -0.0074684
0.29447     0.52728   -0.014682
0.27871     0.63296   -0.021858
0.24263     0.73352   -0.029034
0.18762     0.82512   -0.036216
0.1158     0.90423     -0.0434
0.029924     0.96781   -0.050585
-0.0667      1.0134   -0.057771
-0.17037      1.0393   -0.064956
-0.27709      1.0445   -0.072141
-0.38277      1.0288   -0.079326
-0.48336      0.9927   -0.086511
-0.57498     0.93772   -0.093696
-0.65411     0.86592    -0.10088
-0.71772     0.78007    -0.10807
-0.76337     0.68346    -0.11525
-0.78929      0.5798    -0.12244
-0.7945     0.47308    -0.12962
-0.77879     0.36739    -0.13681
-0.74277      0.2668    -0.14399
-0.68782     0.17516    -0.15118
-0.61605    0.096003    -0.15836
-0.53022    0.032364    -0.16555
-0.43362   -0.013311    -0.17273
-0.32998   -0.039268    -0.17992
-0.22325   -0.044509     -0.1871
-0.11756   -0.028835    -0.19429
-0.016948   0.0071471    -0.20148
0.074704    0.062044    -0.20867
0.15386     0.13373    -0.21582
0.21743     0.21948    -0.22288
0.26281     0.31615    -0.22978
0.28792     0.42061     -0.2367
0.29157     0.53007    -0.24479
0.27495     0.64295    -0.25821
0.025782      0.0921   -0.029705
0.042525      0.1951   -0.043061
0.042339     0.30273   -0.051708
0.021489     0.40812   -0.059211
-0.019338     0.50705   -0.066388
-0.078673     0.59594    -0.07353
-0.15422     0.67148   -0.080692
-0.24306     0.73083   -0.087869
-0.34178      0.7717   -0.095054
-0.44658     0.79254    -0.10224
-0.55343     0.79254    -0.10942
-0.65822      0.7717    -0.11661
-0.75694     0.73082    -0.12379
-0.84579     0.67147    -0.13098
-0.92136     0.59592    -0.13817
-0.98074     0.50709    -0.14535
-1.0217     0.40839    -0.15254
-1.0425      0.3036    -0.15972
-1.0426     0.19675    -0.16691
-1.0218    0.091941    -0.17409
-0.9809  -0.0067912    -0.18128
-0.92158   -0.095659    -0.18846
-0.84606    -0.17125    -0.19565
-0.75725    -0.23066    -0.20283
-0.65855     -0.2716    -0.21002
-0.55377    -0.29251     -0.2172
-0.44692    -0.29258    -0.22439
-0.34211     -0.2718    -0.23157
-0.24336    -0.23098    -0.23876
-0.15447    -0.17168    -0.24594
-0.078859   -0.096189    -0.25313
-0.019416  -0.0074046    -0.26031
0.021581    0.091244    -0.26748
0.042565     0.19596    -0.27461
0.042658     0.30274     -0.2817
0.02148     0.40761    -0.28888
-0.021154     0.50665    -0.29673
-0.08483     0.59629     -0.3068
-0.16503     0.67327    -0.32034
-0.014561    0.089731  -0.0053472
-0.042476     0.17605   -0.013627
-0.086102      0.2617   -0.022266
-0.14521     0.33792   -0.029813
-0.21799     0.40091   -0.036979
-0.30161      0.4483   -0.044108
-0.39285     0.47839   -0.051269
-0.48821      0.4901   -0.058448
-0.58403     0.48299   -0.065634
-0.67662     0.45732    -0.07282
-0.76243     0.41408   -0.080005
-0.83815     0.35494    -0.08719
-0.90089     0.28217   -0.094375
-0.94823     0.19856    -0.10156
-0.97835     0.10731    -0.10875
-0.99009     0.01195    -0.11593
-0.98301   -0.083873    -0.12312
-0.95737    -0.17647     -0.1303
-0.91417     -0.2623    -0.13749
-0.85505    -0.33804    -0.14467
-0.7823     -0.4008    -0.15186
-0.6987    -0.44817    -0.15904
-0.60747    -0.47831    -0.16623
-0.51211    -0.49009    -0.17341
-0.41628    -0.48304     -0.1806
-0.32367    -0.45743    -0.18778
-0.23784    -0.41425    -0.19497
-0.16207    -0.35516    -0.20215
-0.099287    -0.28242    -0.20934
-0.051897    -0.19884    -0.21652
-0.021719    -0.10761    -0.22371
-0.0099084    -0.01226     -0.2309
-0.016906    0.083555    -0.23809
-0.042427     0.17614    -0.24527
-0.085527     0.26192    -0.25234
-0.1448     0.33755    -0.25917
-0.21873      0.3999    -0.26575
-0.30579     0.44631    -0.27316
-0.40259      0.4762      -0.285
-0.060313    0.078379     0.01633
-0.1333     0.15374     0.01505
-0.21983     0.21705    0.007574
-0.31671     0.26308 -9.8682e-05
-0.42051     0.28923  -0.0074684
-0.52728     0.29447   -0.014682
-0.63296     0.27871   -0.021858
-0.73352     0.24263   -0.029034
-0.82512     0.18762   -0.036216
-0.90423      0.1158     -0.0434
-0.96781    0.029924   -0.050585
-1.0134     -0.0667   -0.057771
-1.0393    -0.17037   -0.064956
-1.0445    -0.27709   -0.072141
-1.0288    -0.38277   -0.079326
-0.9927    -0.48336   -0.086511
-0.93772    -0.57498   -0.093696
-0.86592    -0.65411    -0.10088
-0.78007    -0.71772    -0.10807
-0.68346    -0.76337    -0.11525
-0.5798    -0.78929    -0.12244
-0.47308     -0.7945    -0.12962
-0.36739    -0.77879    -0.13681
-0.2668    -0.74277    -0.14399
-0.17516    -0.68782    -0.15118
-0.096003    -0.61605    -0.15836
-0.032364    -0.53022    -0.16555
0.013311    -0.43362    -0.17273
0.039268    -0.32998    -0.17992
0.044509    -0.22325     -0.1871
0.028835    -0.11756    -0.19429
-0.0071471   -0.016948    -0.20148
-0.062044    0.074704    -0.20867
-0.13373     0.15386    -0.21582
-0.21948     0.21743    -0.22288
-0.31615     0.26281    -0.22978
-0.42061     0.28792     -0.2367
-0.53007     0.29157    -0.24479
-0.64295     0.27495    -0.25821
-0.0921    0.025782   -0.029705
-0.1951    0.042525   -0.043061
-0.30273    0.042339   -0.051708
-0.40812    0.021489   -0.059211
-0.50705   -0.019338   -0.066388
-0.59594   -0.078673    -0.07353
-0.67148    -0.15422   -0.080692
-0.73083    -0.24306   -0.087869
-0.7717    -0.34178   -0.095054
-0.79254    -0.44658    -0.10224
-0.79254    -0.55343    -0.10942
-0.7717    -0.65822    -0.11661
-0.73082    -0.75694    -0.12379
-0.67147    -0.84579    -0.13098
-0.59592    -0.92136    -0.13817
-0.50709    -0.98074    -0.14535
-0.40839     -1.0217    -0.15254
-0.3036     -1.0425    -0.15972
-0.19675     -1.0426    -0.16691
-0.091941     -1.0218    -0.17409
0.0067912     -0.9809    -0.18128
0.095659    -0.92158    -0.18846
0.17125    -0.84606    -0.19565
0.23066    -0.75725    -0.20283
0.2716    -0.65855    -0.21002
0.29251    -0.55377     -0.2172
0.29258    -0.44692    -0.22439
0.2718    -0.34211    -0.23157
0.23098    -0.24336    -0.23876
0.17168    -0.15447    -0.24594
0.096189   -0.078859    -0.25313
0.0074046   -0.019416    -0.26031
-0.091244    0.021581    -0.26748
-0.19596    0.042565    -0.27461
-0.30274    0.042658     -0.2817
-0.40761     0.02148    -0.28888
-0.50665   -0.021154    -0.29673
-0.59629    -0.08483     -0.3068
-0.67327    -0.16503    -0.32034
-0.089731   -0.014561  -0.0053472
-0.17605   -0.042476   -0.013627
-0.2617   -0.086102   -0.022266
-0.33792    -0.14521   -0.029813
-0.40091    -0.21799   -0.036979
-0.4483    -0.30161   -0.044108
-0.47839    -0.39285   -0.051269
-0.4901    -0.48821   -0.058448
-0.48299    -0.58403   -0.065634
-0.45732    -0.67662    -0.07282
-0.41408    -0.76243   -0.080005
-0.35494    -0.83815    -0.08719
-0.28217    -0.90089   -0.094375
-0.19856    -0.94823    -0.10156
-0.10731    -0.97835    -0.10875
-0.01195    -0.99009    -0.11593
0.083873    -0.98301    -0.12312
0.17647    -0.95737     -0.1303
0.2623    -0.91417    -0.13749
0.33804    -0.85505    -0.14467
0.4008     -0.7823    -0.15186
0.44817     -0.6987    -0.15904
0.47831    -0.60747    -0.16623
0.49009    -0.51211    -0.17341
0.48304    -0.41628     -0.1806
0.45743    -0.32367    -0.18778
0.41425    -0.23784    -0.19497
0.35516    -0.16207    -0.20215
0.28242   -0.099287    -0.20934
0.19884   -0.051897    -0.21652
0.10761   -0.021719    -0.22371
0.01226  -0.0099084     -0.2309
-0.083555   -0.016906    -0.23809
-0.17614   -0.042427    -0.24527
-0.26192   -0.085527    -0.25234
-0.33755     -0.1448    -0.25917
-0.3999    -0.21873    -0.26575
-0.44631    -0.30579    -0.27316
-0.4762    -0.40259      -0.285
-0.078379   -0.060313     0.01633
-0.15374     -0.1333     0.01505
-0.21705    -0.21983    0.007574
-0.26308    -0.31671 -9.8682e-05
-0.28923    -0.42051  -0.0074684
-0.29447    -0.52728   -0.014682
-0.27871    -0.63296   -0.021858
-0.24263    -0.73352   -0.029034
-0.18762    -0.82512   -0.036216
-0.1158    -0.90423     -0.0434
-0.029924    -0.96781   -0.050585
0.0667     -1.0134   -0.057771
0.17037     -1.0393   -0.064956
0.27709     -1.0445   -0.072141
0.38277     -1.0288   -0.079326
0.48336     -0.9927   -0.086511
0.57498    -0.93772   -0.093696
0.65411    -0.86592    -0.10088
0.71772    -0.78007    -0.10807
0.76337    -0.68346    -0.11525
0.78929     -0.5798    -0.12244
0.7945    -0.47308    -0.12962
0.77879    -0.36739    -0.13681
0.74277     -0.2668    -0.14399
0.68782    -0.17516    -0.15118
0.61605   -0.096003    -0.15836
0.53022   -0.032364    -0.16555
0.43362    0.013311    -0.17273
0.32998    0.039268    -0.17992
0.22325    0.044509     -0.1871
0.11756    0.028835    -0.19429
0.016948  -0.0071471    -0.20148
-0.074704   -0.062044    -0.20867
-0.15386    -0.13373    -0.21582
-0.21743    -0.21948    -0.22288
-0.26281    -0.31615    -0.22978
-0.28792    -0.42061     -0.2367
-0.29157    -0.53007    -0.24479
-0.27495    -0.64295    -0.25821
-0.025782     -0.0921   -0.029705
-0.042525     -0.1951   -0.043061
-0.042339    -0.30273   -0.051708
-0.021489    -0.40812   -0.059211
0.019338    -0.50705   -0.066388
0.078673    -0.59594    -0.07353
0.15422    -0.67148   -0.080692
0.24306    -0.73083   -0.087869
0.34178     -0.7717   -0.095054
0.44658    -0.79254    -0.10224
0.55343    -0.79254    -0.10942
0.65822     -0.7717    -0.11661
0.75694    -0.73082    -0.12379
0.84579    -0.67147    -0.13098
0.92136    -0.59592    -0.13817
0.98074    -0.50709    -0.14535
1.0217    -0.40839    -0.15254
1.0425     -0.3036    -0.15972
1.0426    -0.19675    -0.16691
1.0218   -0.091941    -0.17409
0.9809   0.0067912    -0.18128
0.92158    0.095659    -0.18846
0.84606     0.17125    -0.19565
0.75725     0.23066    -0.20283
0.65855      0.2716    -0.21002
0.55377     0.29251     -0.2172
0.44692     0.29258    -0.22439
0.34211      0.2718    -0.23157
0.24336     0.23098    -0.23876
0.15447     0.17168    -0.24594
0.078859    0.096189    -0.25313
0.019416   0.0074046    -0.26031
-0.021581   -0.091244    -0.26748
-0.042565    -0.19596    -0.27461
-0.042658    -0.30274     -0.2817
-0.02148    -0.40761    -0.28888
0.021154    -0.50665    -0.29673
0.08483    -0.59629     -0.3068
0.16503    -0.67327    -0.32034
0.014561   -0.089731  -0.0053472
0.042476    -0.17605   -0.013627
0.086102     -0.2617   -0.022266
0.14521    -0.33792   -0.029813
0.21799    -0.40091   -0.036979
0.30161     -0.4483   -0.044108
0.39285    -0.47839   -0.051269
0.48821     -0.4901   -0.058448
0.58403    -0.48299   -0.065634
0.67662    -0.45732    -0.07282
0.76243    -0.41408   -0.080005
0.83815    -0.35494    -0.08719
0.90089    -0.28217   -0.094375
0.94823    -0.19856    -0.10156
0.97835    -0.10731    -0.10875
0.99009    -0.01195    -0.11593
0.98301    0.083873    -0.12312
0.95737     0.17647     -0.1303
0.91417      0.2623    -0.13749
0.85505     0.33804    -0.14467
0.7823      0.4008    -0.15186
0.6987     0.44817    -0.15904
0.60747     0.47831    -0.16623
0.51211     0.49009    -0.17341
0.41628     0.48304     -0.1806
0.32367     0.45743    -0.18778
0.23784     0.41425    -0.19497
0.16207     0.35516    -0.20215
0.099287     0.28242    -0.20934
0.051897     0.19884    -0.21652
0.021719     0.10761    -0.22371
0.0099084     0.01226     -0.2309
0.016906   -0.083555    -0.23809
0.042427    -0.17614    -0.24527
0.085527    -0.26192    -0.25234
0.1448    -0.33755    -0.25917
0.21873     -0.3999    -0.26575
0.30579    -0.44631    -0.27316
0.40259     -0.4762      -0.285
0.060313   -0.078379     0.01633
0.1333    -0.15374     0.01505
0.21983    -0.21705    0.007574
0.31671    -0.26308 -9.8682e-05
0.42051    -0.28923  -0.0074684
0.52728    -0.29447   -0.014682
0.63296    -0.27871   -0.021858