# vtk DataFile Version 3.0
VTK Output
ASCII
DATASET UNSTRUCTURED_GRID

POINTS 1025 float
-0.5        -0.5           0
0.5        -0.5           0
0.5         0.5           0
-0.5         0.5           0
-0.5         -0.5           10
0.5         -0.5           10
0.5          0.5           10
-0.5          0.5           10
-0.25        -0.5           0
-1.3751e-12        -0.5           0
0.25        -0.5           0
0.5       -0.25           0
0.5 -1.3751e-12           0
0.5        0.25           0
0.25         0.5           0
1.3751e-12         0.5           0
-0.25         0.5           0
-0.5        0.25           0
-0.5  1.3751e-12           0
-0.5       -0.25           0
-0.25         -0.5           10
-1.37512e-12         -0.5           10
0.25         -0.5           10
0.5        -0.25           10
0.5 -1.37512e-12           10
0.5         0.25           10
0.25          0.5           10
1.37512e-12          0.5           10
-0.25          0.5           10
-0.5         0.25           10
-0.5  1.37512e-12           10
-0.5        -0.25           10
-0.5        -0.5        0.25
-0.5        -0.5         0.5
-0.5        -0.5        0.75
-0.5        -0.5           1
-0.5        -0.5        1.25
-0.5        -0.5         1.5
-0.5        -0.5        1.75
-0.5        -0.5           2
-0.5        -0.5        2.25
-0.5        -0.5         2.5
-0.5        -0.5        2.75
-0.5        -0.5           3
-0.5        -0.5        3.25
-0.5        -0.5         3.5
-0.5        -0.5        3.75
-0.5        -0.5           4
-0.5        -0.5        4.25
-0.5        -0.5         4.5
-0.5        -0.5        4.75
-0.5        -0.5           5
-0.5        -0.5        5.25
-0.5        -0.5         5.5
-0.5        -0.5        5.75
-0.5        -0.5           6
-0.5        -0.5        6.25
-0.5        -0.5         6.5
-0.5        -0.5        6.75
-0.5        -0.5           7
-0.5        -0.5        7.25
-0.5        -0.5         7.5
-0.5        -0.5        7.75
-0.5        -0.5           8
-0.5        -0.5        8.25
-0.5        -0.5         8.5
-0.5        -0.5        8.75
-0.5        -0.5           9
-0.5        -0.5        9.25
-0.5        -0.5         9.5
-0.5        -0.5        9.75
0.5        -0.5        0.25
0.5        -0.5         0.5
0.5        -0.5        0.75
0.5        -0.5           1
0.5        -0.5        1.25
0.5        -0.5         1.5
0.5        -0.5        1.75
0.5        -0.5           2
0.5        -0.5        2.25
0.5        -0.5         2.5
0.5        -0.5        2.75
0.5        -0.5           3
0.5        -0.5        3.25
0.5        -0.5         3.5
0.5        -0.5        3.75
0.5        -0.5           4
0.5        -0.5        4.25
0.5        -0.5         4.5
0.5        -0.5        4.75
0.5        -0.5           5
0.5        -0.5        5.25
0.5        -0.5         5.5
0.5        -0.5        5.75
0.5        -0.5           6
0.5        -0.5        6.25
0.5        -0.5         6.5
0.5        -0.5        6.75
0.5        -0.5           7
0.5        -0.5        7.25
0.5        -0.5         7.5
0.5        -0.5        7.75
0.5        -0.5           8
0.5        -0.5        8.25
0.5        -0.5         8.5
0.5        -0.5        8.75
0.5        -0.5           9
0.5        -0.5        9.25
0.5        -0.5         9.5
0.5        -0.5        9.75
0.5         0.5        0.25
0.5         0.5         0.5
0.5         0.5        0.75
0.5         0.5           1
0.5         0.5        1.25
0.5         0.5         1.5
0.5         0.5        1.75
0.5         0.5           2
0.5         0.5        2.25
0.5         0.5         2.5
0.5         0.5        2.75
0.5         0.5           3
0.5         0.5        3.25
0.5         0.5         3.5
0.5         0.5        3.75
0.5         0.5           4
0.5         0.5        4.25
0.5         0.5         4.5
0.5         0.5        4.75
0.5         0.5           5
0.5         0.5        5.25
0.5         0.5         5.5
0.5         0.5        5.75
0.5         0.5           6
0.5         0.5        6.25
0.5         0.5         6.5
0.5         0.5        6.75
0.5         0.5           7
0.5         0.5        7.25
0.5         0.5         7.5
0.5         0.5        7.75
0.5         0.5           8
0.5         0.5        8.25
0.5         0.5         8.5
0.5         0.5        8.75
0.5         0.5           9
0.5         0.5        9.25
0.5         0.5         9.5
0.5         0.5        9.75
-0.5         0.5        0.25
-0.5         0.5         0.5
-0.5         0.5        0.75
-0.5         0.5           1
-0.5         0.5        1.25
-0.5         0.5         1.5
-0.5         0.5        1.75
-0.5         0.5           2
-0.5         0.5        2.25
-0.5         0.5         2.5
-0.5         0.5        2.75
-0.5         0.5           3
-0.5         0.5        3.25
-0.5         0.5         3.5
-0.5         0.5        3.75
-0.5         0.5           4
-0.5         0.5        4.25
-0.5         0.5         4.5
-0.5         0.5        4.75
-0.5         0.5           5
-0.5         0.5        5.25
-0.5         0.5         5.5
-0.5         0.5        5.75
-0.5         0.5           6
-0.5         0.5        6.25
-0.5         0.5         6.5
-0.5         0.5        6.75
-0.5         0.5           7
-0.5         0.5        7.25
-0.5         0.5         7.5
-0.5         0.5        7.75
-0.5         0.5           8
-0.5         0.5        8.25
-0.5         0.5         8.5
-0.5         0.5        8.75
-0.5         0.5           9
-0.5         0.5        9.25
-0.5         0.5         9.5
-0.5         0.5        9.75
-0.25       -0.25           0
-0.25  6.8756e-13           0
-0.25        0.25           0
-6.8756e-13       -0.25           0
-3.7821e-24           0           0
6.8756e-13        0.25           0
0.25       -0.25           0
0.25 -6.8756e-13           0
0.25        0.25           0
-0.25        -0.5        0.25
-0.25        -0.5         0.5
-0.25        -0.5        0.75
-0.25        -0.5           1
-0.25        -0.5        1.25
-0.25        -0.5         1.5
-0.25        -0.5        1.75
-0.25        -0.5           2
-0.25        -0.5        2.25
-0.25        -0.5         2.5
-0.25        -0.5        2.75
-0.25        -0.5           3
-0.25        -0.5        3.25
-0.25        -0.5         3.5
-0.25        -0.5        3.75
-0.25        -0.5           4
-0.25        -0.5        4.25
-0.25        -0.5         4.5
-0.25        -0.5        4.75
-0.25        -0.5           5
-0.25        -0.5        5.25
-0.25        -0.5         5.5
-0.25        -0.5        5.75
-0.25        -0.5           6
-0.25        -0.5        6.25
-0.25        -0.5         6.5
-0.25        -0.5        6.75
-0.25        -0.5           7
-0.25        -0.5        7.25
-0.25        -0.5         7.5
-0.25        -0.5        7.75
-0.25        -0.5           8
-0.25        -0.5        8.25
-0.25        -0.5         8.5
-0.25        -0.5        8.75
-0.25        -0.5           9
-0.25        -0.5        9.25
-0.25        -0.5         9.5
-0.25        -0.5        9.75
-1.3751e-12        -0.5        0.25
-1.3751e-12        -0.5         0.5
-1.3751e-12        -0.5        0.75
-1.3751e-12        -0.5           1
-1.3751e-12        -0.5        1.25
-1.3751e-12        -0.5         1.5
-1.3751e-12        -0.5        1.75
-1.3751e-12        -0.5           2
-1.3751e-12        -0.5        2.25
-1.3751e-12        -0.5         2.5
-1.3751e-12        -0.5        2.75
-1.3751e-12        -0.5           3
-1.3751e-12        -0.5        3.25
-1.3751e-12        -0.5         3.5
-1.3751e-12        -0.5        3.75
-1.3751e-12        -0.5           4
-1.3751e-12        -0.5        4.25
-1.3751e-12        -0.5         4.5
-1.3751e-12        -0.5        4.75
-1.3751e-12        -0.5           5
-1.3751e-12        -0.5        5.25
-1.3751e-12        -0.5         5.5
-1.3751e-12        -0.5        5.75
-1.3751e-12        -0.5           6
-1.3751e-12        -0.5        6.25
-1.3751e-12        -0.5         6.5
-1.3751e-12        -0.5        6.75
-1.3751e-12        -0.5           7
-1.3751e-12        -0.5        7.25
-1.3751e-12        -0.5         7.5
-1.3751e-12        -0.5        7.75
-1.3751e-12        -0.5           8
-1.3751e-12        -0.5        8.25
-1.3751e-12        -0.5         8.5
-1.3751e-12        -0.5        8.75
-1.3751e-12        -0.5           9
-1.3751e-12        -0.5        9.25
-1.3751e-12        -0.5         9.5
-1.3751e-12        -0.5        9.75
0.25        -0.5        0.25
0.25        -0.5         0.5
0.25        -0.5        0.75
0.25        -0.5           1
0.25        -0.5        1.25
0.25        -0.5         1.5
0.25        -0.5        1.75
0.25        -0.5           2
0.25        -0.5        2.25
0.25        -0.5         2.5
0.25        -0.5        2.75
0.25        -0.5           3
0.25        -0.5        3.25
0.25        -0.5         3.5
0.25        -0.5        3.75
0.25        -0.5           4
0.25        -0.5        4.25
0.25        -0.5         4.5
0.25        -0.5        4.75
0.25        -0.5           5
0.25        -0.5        5.25
0.25        -0.5         5.5
0.25        -0.5        5.75
0.25        -0.5           6
0.25        -0.5        6.25
0.25        -0.5         6.5
0.25        -0.5        6.75
0.25        -0.5           7
0.25        -0.5        7.25
0.25        -0.5         7.5
0.25        -0.5        7.75
0.25        -0.5           8
0.25        -0.5        8.25
0.25        -0.5         8.5
0.25        -0.5        8.75
0.25        -0.5           9
0.25        -0.5        9.25
0.25        -0.5         9.5
0.25        -0.5        9.75
0.5       -0.25        0.25
0.5       -0.25         0.5
0.5       -0.25        0.75
0.5       -0.25           1
0.5       -0.25        1.25
0.5       -0.25         1.5
0.5       -0.25        1.75
0.5       -0.25           2
0.5       -0.25        2.25
0.5       -0.25         2.5
0.5       -0.25        2.75
0.5       -0.25           3
0.5       -0.25        3.25
0.5       -0.25         3.5
0.5       -0.25        3.75
0.5       -0.25           4
0.5       -0.25        4.25
[...]
POINT_DATA 1025
VECTORS displacement double
0  0  0
0  0  0
0  0  0
0  0  0
-0.19352     0.36205    -0.72822
-0.36205    -0.19352    -0.72822
0.19352    -0.36205    -0.72822
0.36205     0.19352    -0.72822
0  0  0
0  0  0
0  0  0
0  0  0
0  0  0
0  0  0
0  0  0
0  0  0
0  0  0
0  0  0
0  0  0
0  0  0
-0.23565     0.22316    -0.73326
-0.27779    0.084265    -0.67373
-0.31992   -0.054627    -0.63385
-0.22316    -0.23565    -0.73326
-0.084265    -0.27779    -0.67373
0.054627    -0.31992    -0.63385
0.23565    -0.22316    -0.73326
0.27779   -0.084265    -0.67373
0.31992    0.054627    -0.63385
0.22316     0.23565    -0.73326
0.084265     0.27779    -0.67373
-0.054627     0.31992    -0.63385
0.14899   -0.077351  -0.0035424
0.33263    -0.14594   -0.023362
0.53205    -0.16299   -0.043846
0.72829    -0.12327   -0.062275
0.90295   -0.028446   -0.078642
1.0409     0.11305   -0.094004
1.1307     0.28858    -0.10917
1.165     0.48271     -0.1244
1.1408     0.67841    -0.13973
1.0603     0.85847    -0.15509
0.93052       1.007    -0.17046
0.76289       1.111    -0.18583
0.57215      1.1612     -0.2012
0.37507      1.1533    -0.21656
0.18897      1.0879    -0.23192
0.030224     0.97088    -0.24728
-0.087212      0.8124    -0.26265
-0.15301     0.62646    -0.27801
-0.16138     0.42939    -0.29337
-0.1116     0.23854    -0.30874
-0.0080265    0.070673     -0.3241
0.14022   -0.059437    -0.33946
0.3201    -0.14035    -0.35483
0.5158    -0.16495    -0.37019
0.71012    -0.13108    -0.38555
0.88595   -0.041716    -0.40091
1.0278    0.095288    -0.41628
1.1233     0.26788    -0.43164
1.164      0.4609      -0.447
1.1462     0.65737    -0.46239
1.0717     0.84002    -0.47781
0.94688     0.99277    -0.49325
0.78308      1.1022    -0.50852
0.59488      1.1589    -0.52327
0.39866      1.1576    -0.53712
0.21055      1.0961    -0.55099
0.046091     0.97343    -0.56968
-0.078278     0.79376    -0.60372
-0.15025      0.5779    -0.65856
0.077351     0.14899  -0.0035424
0.14594     0.33263   -0.023362
0.16299     0.53205   -0.043846
0.12327     0.72829   -0.062275
0.028446     0.90295   -0.078642
-0.11305      1.0409   -0.094004
-0.28858      1.1307    -0.10917
-0.48271       1.165     -0.1244
-0.67841      1.1408    -0.13973
-0.85847      1.0603    -0.15509
-1.007     0.93052    -0.17046
-1.111     0.76289    -0.18583
-1.1612     0.57215     -0.2012
-1.1533     0.37507    -0.21656
-1.0879     0.18897    -0.23192
-0.97088    0.030224    -0.24728
-0.8124   -0.087212    -0.26265
-0.62646    -0.15301    -0.27801
-0.42939    -0.16138    -0.29337
-0.23854     -0.1116    -0.30874
-0.070673  -0.0080265     -0.3241
0.059437     0.14022    -0.33946
0.14035      0.3201    -0.35483
0.16495      0.5158    -0.37019
0.13108     0.71012    -0.38555
0.041716     0.88595    -0.40091
-0.095288      1.0278    -0.41628
-0.26788      1.1233    -0.43164
-0.4609       1.164      -0.447
-0.65737      1.1462    -0.46239
-0.84002      1.0717    -0.47781
-0.99277     0.94688    -0.49325
-1.1022     0.78308    -0.50852
-1.1589     0.59488    -0.52327
-1.1576     0.39866    -0.53712
-1.0961     0.21055    -0.55099
-0.97343    0.046091    -0.56968
-0.79376   -0.078278    -0.60372
-0.5779    -0.15025    -0.65856
-0.14899    0.077351  -0.0035424
-0.33263     0.14594   -0.023362
-0.53205     0.16299   -0.043846
-0.72829     0.12327   -0.062275
-0.90295    0.028446   -0.078642
-1.0409    -0.11305   -0.094004
-1.1307    -0.28858    -0.10917
-1.165    -0.48271     -0.1244
-1.1408    -0.67841    -0.13973
-1.0603    -0.85847    -0.15509
-0.93052      -1.007    -0.17046
-0.76289      -1.111    -0.18583
-0.57215     -1.1612     -0.2012
-0.37507     -1.1533    -0.21656
-0.18897     -1.0879    -0.23192
-0.030224    -0.97088    -0.24728
0.087212     -0.8124    -0.26265
0.15301    -0.62646    -0.27801
0.16138    -0.42939    -0.29337
0.1116    -0.23854    -0.30874
0.0080265   -0.070673     -0.3241
-0.14022    0.059437    -0.33946
-0.3201     0.14035    -0.35483
-0.5158     0.16495    -0.37019
-0.71012     0.13108    -0.38555
-0.88595    0.041716    -0.40091
-1.0278   -0.095288    -0.41628
-1.1233    -0.26788    -0.43164
-1.164     -0.4609      -0.447
-1.1462    -0.65737    -0.46239
-1.0717    -0.84002    -0.47781
-0.94688    -0.99277    -0.49325
-0.78308     -1.1022    -0.50852
-0.59488     -1.1589    -0.52327
-0.39866     -1.1576    -0.53712
-0.21055     -1.0961    -0.55099
-0.046091    -0.97343    -0.56968
0.078278    -0.79376    -0.60372
0.15025     -0.5779    -0.65856
-0.077351    -0.14899  -0.0035424
-0.14594    -0.33263   -0.023362
-0.16299    -0.53205   -0.043846
-0.12327    -0.72829   -0.062275
-0.028446    -0.90295   -0.078642
0.11305     -1.0409   -0.094004
0.28858     -1.1307    -0.10917
0.48271      -1.165     -0.1244
0.67841     -1.1408    -0.13973
0.85847     -1.0603    -0.15509
1.007    -0.93052    -0.17046
1.111    -0.76289    -0.18583
1.1612    -0.57215     -0.2012
1.1533    -0.37507    -0.21656
1.0879    -0.18897    -0.23192
0.97088   -0.030224    -0.24728
0.8124    0.087212    -0.26265
0.62646     0.15301    -0.27801
0.42939     0.16138    -0.29337
0.23854      0.1116    -0.30874
0.070673   0.0080265     -0.3241
-0.059437    -0.14022    -0.33946
-0.14035     -0.3201    -0.35483
-0.16495     -0.5158    -0.37019
-0.13108    -0.71012    -0.38555
-0.041716    -0.88595    -0.40091
0.095288     -1.0278    -0.41628
0.26788     -1.1233    -0.43164
0.4609      -1.164      -0.447
0.65737     -1.1462    -0.46239
0.84002     -1.0717    -0.47781
0.99277    -0.94688    -0.49325
1.1022    -0.78308    -0.50852
1.1589    -0.59488    -0.52327
1.1576    -0.39866    -0.53712
1.0961    -0.21055    -0.55099
0.97343   -0.046091    -0.56968
0.79376    0.078278    -0.60372
0.5779     0.15025    -0.65856
0  0  0
0  0  0
0  0  0
0  0  0
0  0  0
0  0  0
0  0  0
0  0  0
0  0  0
0.1314   -0.025156   -0.045841
0.28322   -0.026922   -0.071711
0.43792    0.009205   -0.091498
0.57592    0.087602    -0.10828
0.68378     0.20195     -0.1237
0.75254     0.34234    -0.13884
0.7768     0.49653    -0.15405
0.75468     0.65107    -0.16936
0.68818     0.79238    -0.18473
0.58317     0.90801     -0.2001
0.44886     0.98778    -0.21547
0.29706      1.0246    -0.23083
0.14113      1.0154    -0.24619
-0.0052297     0.96079    -0.26156
-0.12914     0.86568    -0.27692
-0.21971     0.73842    -0.29228
-0.26898     0.59018    -0.30765
-0.27261     0.43402    -0.32301
-0.23028     0.28366    -0.33837
-0.14572     0.15232    -0.35374
-0.026354    0.051556     -0.3691
0.11731  -0.0097712    -0.38446
0.27264    -0.02627    -0.39983
0.42598   0.0035092    -0.41519
0.56385    0.076949    -0.43055
0.67412     0.18759    -0.44591
0.74709      0.3257    -0.46128
0.77634     0.47914    -0.47664
0.7593     0.63442    -0.49201
0.69746     0.77789    -0.50739
0.59625     0.89691    -0.52278
0.46465     0.98108    -0.53815
0.31437      1.0231    -0.55338
0.15869      1.0196    -0.56831
0.011182     0.97053    -0.58299
-0.11492     0.87808    -0.59853
-0.20578       0.745    -0.61858
-0.24717     0.57794    -0.64944
-0.24043     0.40268    -0.68522
0.12276    0.028599  -0.0082132
0.24248    0.087735   -0.026034
0.3531     0.18003   -0.046313
0.43328     0.29966   -0.063444
0.47397     0.43645   -0.078844
0.47209     0.57841   -0.093883
0.42844     0.71331    -0.10905
0.34709     0.82947    -0.12435
0.23523     0.91673    -0.13972
0.10267     0.96738     -0.1551
-0.038915     0.97693    -0.17047
-0.17708     0.94455    -0.18583
-0.29966     0.87307     -0.2012
-0.3959     0.76879    -0.21656
-0.45732     0.64087    -0.23192
-0.47852     0.50056    -0.24728
-0.45765      0.3602    -0.26265
-0.39653     0.23214    -0.27801
-0.30054     0.12763    -0.29337
-0.17812    0.055863    -0.30874
-0.040035    0.023155     -0.3241
0.10157    0.032381    -0.33946
0.23424    0.082728    -0.35483
0.34631     0.16977    -0.37019
0.42793     0.28585    -0.38555
0.47192     0.42076    -0.40092
0.47441     0.56264    -0.41628
0.43518     0.69901    -0.43164
0.35767     0.81788      -0.447
0.2487      0.9088    -0.46236
0.11783     0.96376    -0.47776
-0.023401     0.97796    -0.49322
-0.16249      0.9503     -0.5087
-0.28716     0.88347    -0.52394
-0.38644     0.78348    -0.53829
-0.45108     0.65813    -0.55091
-0.47287     0.51561    -0.56256
-0.44398     0.36201    -0.58207
-0.36275      0.2139    -0.62106
0.10258    0.095342    0.021043
0.19364     0.21613    0.016186
0.2554     0.36115   0.0001745
0.27478     0.51819   -0.016978
0.24703     0.67291   -0.033246
0.17472     0.81161   -0.048809
0.064779      0.9225   -0.064119
-0.072882     0.99616   -0.079412
-0.22613      1.0262   -0.094742
-0.38149      1.0101     -0.1101
-0.5253     0.94909    -0.12547
-0.6449      0.8486    -0.14083
-0.72977     0.71747     -0.1562
-0.77245      0.5672    -0.17156
-0.76919     0.41103    -0.18692
-0.72027     0.26268    -0.20228
-0.63      0.1352    -0.21765
-0.50631    0.039804    -0.23301
-0.36008   -0.015128    -0.24837
-0.20417    -0.02476    -0.26374
-0.052289    0.011754     -0.2791
0.082203    0.091204    -0.29446
0.18748      0.2066    -0.30983
0.25429      0.3478    -0.32519
0.27675     0.50238    -0.34055
0.25289     0.65676    -0.35592
0.18481     0.79734    -0.37128
0.078492     0.91178    -0.38664
-0.056721     0.99001      -0.402
-0.20895      1.0251    -0.41737
-0.3648      1.0141    -0.43276
-0.51058     0.95786    -0.44819
-0.63342     0.86155    -0.46363
-0.72253     0.73387    -0.47887
-0.76992     0.58612    -0.49348
-0.77045     0.43051    -0.50711
-0.72043      0.2783    -0.52109
-0.61742     0.14014    -0.54107
-0.46737    0.025661    -0.58221
0.025156      0.1314   -0.045841
0.026922     0.28322   -0.071711
-0.009205     0.43792   -0.091498
-0.087602     0.57592    -0.10828
-0.20195     0.68378     -0.1237
-0.34234     0.75254    -0.13884
-0.49653      0.7768    -0.15405
-0.65107     0.75468    -0.16936
-0.79238     0.68818    -0.18473
-0.90801     0.58317     -0.2001
-0.98778     0.44886    -0.21547
-1.0246     0.29706    -0.23083
-1.0154     0.14113    -0.24619
-0.96079  -0.0052297    -0.26156
-0.86568    -0.12914    -0.27692
-0.73842    -0.21971    -0.29228
-0.59018    -0.26898    -0.30765
-0.43402    -0.27261    -0.32301
-0.28366    -0.23028    -0.33837
-0.15232    -0.14572    -0.35374
-0.051556   -0.026354     -0.3691
0.0097712     0.11731    -0.38446
0.02627     0.27264    -0.39983
-0.0035092     0.42598    -0.41519
-0.076949     0.56385    -0.43055
-0.18759     0.67412    -0.44591
-0.3257     0.74709    -0.46128
-0.47914     0.77634    -0.47664
-0.63442      0.7593    -0.49201
-0.77789     0.69746    -0.50739
-0.89691     0.59625    -0.52278
-0.98108     0.46465    -0.53815
-1.0231     0.31437    -0.55338
-1.0196     0.15869    -0.56831
-0.97053    0.011182    -0.58299
-0.87808    -0.11492    -0.59853
-0.745    -0.20578    -0.61858
-0.57794    -0.24717    -0.64944
-0.40268    -0.24043    -0.68522
-0.028599     0.12276  -0.0082132
-0.087735     0.24248   -0.026034
-0.18003      0.3531   -0.046313
-0.29966     0.43328   -0.063444
-0.43645     0.47397   -0.078844
-0.57841     0.47209   -0.093883
-0.71331     0.42844    -0.10905
-0.82947     0.34709    -0.12435
-0.91673     0.23523    -0.13972
-0.96738     0.10267     -0.1551
-0.97693   -0.038915    -0.17047
-0.94455    -0.17708    -0.18583
-0.87307    -0.29966     -0.2012
-0.76879     -0.3959    -0.21656
-0.64087    -0.45732    -0.23192
-0.50056    -0.47852    -0.24728
-0.3602    -0.45765    -0.26265
-0.23214    -0.39653    -0.27801
-0.12763    -0.30054    -0.29337
-0.055863    -0.17812    -0.30874
-0.023155   -0.040035     -0.3241
-0.032381     0.10157    -0.33946
-0.082728     0.23424    -0.35483
-0.16977     0.34631    -0.37019
-0.28585     0.42793    -0.38555
-0.42076     0.47192    -0.40092
-0.56264     0.47441    -0.41628
-0.69901     0.43518    -0.43164
-0.81788     0.35767      -0.447
-0.9088      0.2487    -0.46236
-0.96376     0.11783    -0.47776
-0.97796   -0.023401    -0.49322
-0.9503    -0.16249     -0.5087
-0.88347    -0.28716    -0.52394
-0.78348    -0.38644    -0.53829
-0.65813    -0.45108    -0.55091
-0.51561    -0.47287    -0.56256
-0.36201    -0.44398    -0.58207
-0.2139    -0.36275    -0.62106
-0.095342     0.10258    0.021043
-0.21613     0.19364    0.016186
-0.36115      0.2554   0.0001745
-0.51819     0.27478   -0.016978
-0.67291     0.24703   -0.033246
-0.81161     0.17472   -0.048809
-0.9225    0.064779   -0.064119
-0.99616   -0.072882   -0.079412
-1.0262    -0.22613   -0.094742
-1.0101    -0.38149     -0.1101
-0.94909     -0.5253    -0.12547
-0.8486     -0.6449    -0.14083
-0.71747    -0.72977     -0.1562
-0.5672    -0.77245    -0.17156
-0.41103    -0.76919    -0.18692
-0.26268    -0.72027    -0.20228
-0.1352       -0.63    -0.21765
-0.039804    -0.50631    -0.23301
0.015128    -0.36008    -0.24837
0.02476    -0.20417    -0.26374
-0.011754   -0.052289     -0.2791
-0.091204    0.082203    -0.29446
-0.2066     0.18748    -0.30983
-0.3478     0.25429    -0.32519
-0.50238     0.27675    -0.34055
-0.65676     0.25289    -0.35592
-0.79734     0.18481    -0.37128
-0.91178    0.078492    -0.38664
-0.99001   -0.056721      -0.402
-1.0251    -0.20895    -0.41737
-1.0141     -0.3648    -0.43276
-0.95786    -0.51058    -0.44819
-0.86155    -0.63342    -0.46363
-0.73387    -0.72253    -0.47887
-0.58612    -0.76992    -0.49348
-0.43051    -0.77045    -0.50711
-0.2783    -0.72043    -0.52109
-0.14014    -0.61742    -0.54107
-0.025661    -0.46737    -0.58221
-0.1314    0.025156   -0.045841
-0.28322    0.026922   -0.071711
-0.43792   -0.009205   -0.091498
-0.57592   -0.087602    -0.10828
-0.68378    -0.20195     -0.1237
-0.75254    -0.34234    -0.13884
-0.7768    -0.49653    -0.15405
-0.75468    -0.65107    -0.16936
-0.68818    -0.79238    -0.18473
-0.58317    -0.90801     -0.2001
-0.44886    -0.98778    -0.21547
-0.29706     -1.0246    -0.23083
-0.14113     -1.0154    -0.24619
0.0052297    -0.96079    -0.26156
0.12914    -0.86568    -0.27692
0.21971    -0.73842    -0.29228
0.26898    -0.59018    -0.30765
0.27261    -0.43402    -0.32301
0.23028    -0.28366    -0.33837
0.14572    -0.15232    -0.35374
0.026354   -0.051556     -0.3691
-0.11731   0.0097712    -0.38446
-0.27264     0.02627    -0.39983
-0.42598  -0.0035092    -0.41519
-0.56385   -0.076949    -0.43055
-0.67412    -0.18759    -0.44591
-0.74709     -0.3257    -0.46128
-0.77634    -0.47914    -0.47664
-0.7593    -0.63442    -0.49201
-0.69746    -0.77789    -0.50739
-0.59625    -0.89691    -0.52278
-0.46465    -0.98108    -0.53815
-0.31437     -1.0231    -0.55338
-0.15869     -1.0196    -0.56831
-0.011182    -0.97053    -0.58299
0.11492    -0.87808    -0.59853
0.20578      -0.745    -0.61858
0.24717    -0.57794    -0.64944
0.24043    -0.40268    -0.68522
-0.12276   -0.028599  -0.0082132
-0.24248   -0.087735   -0.026034
-0.3531    -0.18003   -0.046313
-0.43328    -0.29966   -0.063444
-0.47397    -0.43645   -0.078844
-0.47209    -0.57841   -0.093883
-0.42844    -0.71331    -0.10905
-0.34709    -0.82947    -0.12435
-0.23523    -0.91673    -0.13972
-0.10267    -0.96738     -0.1551
0.038915    -0.97693    -0.17047
0.17708    -0.94455    -0.18583
0.29966    -0.87307     -0.2012
0.3959    -0.76879    -0.21656
0.45732    -0.64087    -0.23192
0.47852    -0.50056    -0.24728
0.45765     -0.3602    -0.26265
0.39653    -0.23214    -0.27801
0.30054    -0.12763    -0.29337
0.17812   -0.055863    -0.30874
0.040035   -0.023155     -0.3241
-0.10157   -0.032381    -0.33946
-0.23424   -0.082728    -0.35483
-0.34631    -0.16977    -0.37019
-0.42793    -0.28585    -0.38555
-0.47192    -0.42076    -0.40092
-0.47441    -0.56264    -0.41628
-0.43518    -0.69901    -0.43164
-0.35767    -0.81788      -0.447
-0.2487     -0.9088    -0.46236
-0.11783    -0.96376    -0.47776
0.023401    -0.97796    -0.49322
0.16249     -0.9503     -0.5087
0.28716    -0.88347    -0.52394
0.38644    -0.78348    -0.53829
0.45108    -0.65813    -0.55091
0.47287    -0.51561    -0.56256
0.44398    -0.36201    -0.58207
0.36275     -0.2139    -0.62106
-0.10258   -0.095342    0.021043
-0.19364    -0.21613    0.016186
-0.2554    -0.36115   0.0001745
-0.27478    -0.51819   -0.016978
-0.24703    -0.67291   -0.033246
-0.17472    -0.81161   -0.048809
-0.064779     -0.9225   -0.064119
0.072882    -0.99616   -0.079412
0.22613     -1.0262   -0.094742
0.38149     -1.0101     -0.1101
0.5253    -0.94909    -0.12547
0.6449     -0.8486    -0.14083
0.72977    -0.71747     -0.1562
0.77245     -0.5672    -0.17156
0.76919    -0.41103    -0.18692
0.72027    -0.26268    -0.20228
0.63     -0.1352    -0.21765
0.50631   -0.039804    -0.23301
0.36008    0.015128    -0.24837
0.20417     0.02476    -0.26374
0.052289   -0.011754     -0.2791
-0.082203   -0.091204    -0.29446
-0.18748     -0.2066    -0.30983
-0.25429     -0.3478    -0.32519
-0.27675    -0.50238    -0.34055
-0.25289    -0.65676    -0.35592
-0.18481    -0.79734    -0.37128
-0.078492    -0.91178    -0.38664
0.056721    -0.99001      -0.402
0.20895     -1.0251    -0.41737
0.3648     -1.0141    -0.43276
0.51058    -0.95786    -0.44819
0.63342    -0.86155    -0.46363
0.72253    -0.73387    -0.47887
0.76992    -0.58612    -0.49348
0.77045    -0.43051    -0.50711
0.72043     -0.2783    -0.52109
0.61742    -0.14014    -0.54107
0.46737   -0.025661    -0.58221
-0.025156     -0.1314   -0.045841
-0.026922    -0.28322   -0.071711
0.009205    -0.43792   -0.091498
0.087602    -0.57592    -0.10828
0.20195    -0.68378     -0.1237
0.34234    -0.75254    -0.13884
0.49653     -0.7768    -0.15405
0.65107    -0.75468    -0.16936
0.79238    -0.68818    -0.18473
0.90801    -0.58317     -0.2001
0.98778    -0.44886    -0.21547
1.0246    -0.29706    -0.23083
1.0154    -0.14113    -0.24619
0.96079   0.0052297    -0.26156
0.86568     0.12914    -0.27692
0.73842     0.21971    -0.29228
0.59018     0.26898    -0.30765
0.43402     0.27261    -0.32301
0.28366     0.23028    -0.33837
0.15232     0.14572    -0.35374
0.051556    0.026354     -0.3691
-0.0097712    -0.11731    -0.38446
-0.02627    -0.27264    -0.39983
0.0035092    -0.42598    -0.41519
0.076949    -0.56385    -0.43055
0.18759    -0.67412    -0.44591
0.3257    -0.74709    -0.46128
0.47914    -0.77634    -0.47664
0.63442     -0.7593    -0.49201
0.77789    -0.69746    -0.50739
0.89691    -0.59625    -0.52278
0.98108    -0.46465    -0.53815
1.0231    -0.31437    -0.55338
1.0196    -0.15869    -0.56831
0.97053   -0.011182    -0.58299
0.87808     0.11492    -0.59853
0.745     0.20578    -0.61858
0.57794     0.24717    -0.64944
0.40268     0.24043    -0.68522
0.028599    -0.12276  -0.0082132
0.087735    -0.24248   -0.026034
0.18003     -0.3531   -0.046313
0.29966    -0.43328   -0.063444
0.43645    -0.47397   -0.078844
0.57841    -0.47209   -0.093883
0.71331    -0.42844    -0.10905
0.82947    -0.34709    -0.12435
0.91673    -0.23523    -0.13972
0.96738    -0.10267     -0.1551
0.97693    0.038915    -0.17047
0.94455     0.17708    -0.18583
0.87307     0.29966     -0.2012
0.76879      0.3959    -0.21656
0.64087     0.45732    -0.23192
0.50056     0.47852    -0.24728
0.3602     0.45765    -0.26265
0.23214     0.39653    -0.27801
0.12763     0.30054    -0.29337
0.055863     0.17812    -0.30874
0.023155    0.040035     -0.3241
0.032381    -0.10157    -0.33946
0.082728    -0.23424    -0.35483
0.16977    -0.34631    -0.37019
0.28585    -0.42793    -0.38555
0.42076    -0.47192    -0.40092
0.56264    -0.47441    -0.41628
0.69901    -0.43518    -0.43164
0.81788    -0.35767      -0.447
0.9088     -0.2487    -0.46236
0.96376    -0.11783    -0.47776
0.97796    0.023401    -0.49322
0.9503     0.16249     -0.5087
0.88347     0.28716    -0.52394
0.78348     0.38644    -0.53829
0.65813     0.45108    -0.55091
0.51561     0.47287    -0.56256
0.36201     0.44398    -0.58207
0.2139     0.36275    -0.62106
0.095342    -0.10258    0.021043
0.21613    -0.19364    0.016186
0.36115     -0.2554   0.0001745
0.51819    -0.27478   -0.016978
0.67291    -0.24703   -0.033246
0.81161    -0.17472   -0.048809
0.9225   -0.064779   -0.064119