# vtk DataFile Version 3.0
VTK Output
ASCII
DATASET UNSTRUCTURED_GRID

POINTS 1025 float
-0.5        -0.5           0
0.5        -0.5           0
0.5         0.5           0
-0.5         0.5           0
-0.5         -0.5           10
0.5         -0.5           10
0.5          0.5           10
-0.5          0.5           10
-0.25        -0.5           0
-1.3751e-12        -0.5           0
0.25        -0.5           0
0.5       -0.25           0
0.5 -1.3751e-12           0
0.5        0.25           0
0.25         0.5           0
1.3751e-12         0.5           0
-0.25         0.5           0
-0.5        0.25           0
-0.5  1.3751e-12           0
-0.5       -0.25           0
-0.25         -0.5           10
-1.37512e-12         -0.5           10
0.25         -0.5           10
0.5        -0.25           10
0.5 -1.37512e-12           10
0.5         0.25           10
0.25          0.5           10
1.37512e-12          0.5           10
-0.25          0.5           10
-0.5         0.25           10
-0.5  1.37512e-12           10
-0.5        -0.25           10
-0.5        -0.5        0.25
-0.5        -0.5         0.5
-0.5        -0.5        0.75
-0.5        -0.5           1
-0.5        -0.5        1.25
-0.5        -0.5         1.5
-0.5        -0.5        1.75
-0.5        -0.5           2
-0.5        -0.5        2.25
-0.5        -0.5         2.5
-0.5        -0.5        2.75
-0.5        -0.5           3
-0.5        -0.5        3.25
-0.5        -0.5         3.5
-0.5        -0.5        3.75
-0.5        -0.5           4
-0.5        -0.5        4.25
-0.5        -0.5         4.5
-0.5        -0.5        4.75
-0.5        -0.5           5
-0.5        -0.5        5.25
-0.5        -0.5         5.5
-0.5        -0.5        5.75
-0.5        -0.5           6
-0.5        -0.5        6.25
-0.5        -0.5         6.5
-0.5        -0.5        6.75
-0.5        -0.5           7
-0.5        -0.5        7.25
-0.5        -0.5         7.5
-0.5        -0.5        7.75
-0.5        -0.5           8
-0.5        -0.5        8.25
-0.5        -0.5         8.5
-0.5        -0.5        8.75
-0.5        -0.5           9
-0.5        -0.5        9.25
-0.5        -0.5         9.5
-0.5        -0.5        9.75
0.5        -0.5        0.25
0.5        -0.5         0.5
0.5        -0.5        0.75
0.5        -0.5           1
0.5        -0.5        1.25
0.5        -0.5         1.5
0.5        -0.5        1.75
0.5        -0.5           2
0.5        -0.5        2.25
0.5        -0.5         2.5
0.5        -0.5        2.75
0.5        -0.5           3
0.5        -0.5        3.25
0.5        -0.5         3.5
0.5        -0.5        3.75
0.5        -0.5           4
0.5        -0.5        4.25
0.5        -0.5         4.5
0.5        -0.5        4.75
0.5        -0.5           5
0.5        -0.5        5.25
0.5        -0.5         5.5
0.5        -0.5        5.75
0.5        -0.5           6
0.5        -0.5        6.25
0.5        -0.5         6.5
0.5        -0.5        6.75
0.5        -0.5           7
0.5        -0.5        7.25
0.5        -0.5         7.5
0.5        -0.5        7.75
0.5        -0.5           8
0.5        -0.5        8.25
0.5        -0.5         8.5
0.5        -0.5        8.75
0.5        -0.5           9
0.5        -0.5        9.25
0.5        -0.5         9.5
0.5        -0.5        9.75
0.5         0.5        0.25
0.5         0.5         0.5
0.5         0.5        0.75
0.5         0.5           1
0.5         0.5        1.25
0.5         0.5         1.5
0.5         0.5        1.75
0.5         0.5           2
0.5         0.5        2.25
0.5         0.5         2.5
0.5         0.5        2.75
0.5         0.5           3
0.5         0.5        3.25
0.5         0.5         3.5
0.5         0.5        3.75
0.5         0.5           4
0.5         0.5        4.25
0.5         0.5         4.5
0.5         0.5        4.75
0.5         0.5           5
0.5         0.5        5.25
0.5         0.5         5.5
0.5         0.5        5.75
0.5         0.5           6
0.5         0.5        6.25
0.5         0.5         6.5
0.5         0.5        6.75
0.5         0.5           7
0.5         0.5        7.25
0.5         0.5         7.5
0.5         0.5        7.75
0.5         0.5           8
0.5         0.5        8.25
0.5         0.5         8.5
0.5         0.5        8.75
0.5         0.5           9
0.5         0.5        9.25
0.5         0.5         9.5
0.5         0.5        9.75
-0.5         0.5        0.25
-0.5         0.5         0.5
-0.5         0.5        0.75
-0.5         0.5           1
-0.5         0.5        1.25
-0.5         0.5         1.5
-0.5         0.5        1.75
-0.5         0.5           2
-0.5         0.5        2.25
-0.5         0.5         2.5
-0.5         0.5        2.75
-0.5         0.5           3
-0.5         0.5        3.25
-0.5         0.5         3.5
-0.5         0.5        3.75
-0.5         0.5           4
-0.5         0.5        4.25
-0.5         0.5         4.5
-0.5         0.5        4.75
-0.5         0.5           5
-0.5         0.5        5.25
-0.5         0.5         5.5
-0.5         0.5        5.75
-0.5         0.5           6
-0.5         0.5        6.25
-0.5         0.5         6.5
-0.5         0.5        6.75
-0.5         0.5           7
-0.5         0.5        7.25
-0.5         0.5         7.5
-0.5         0.5        7.75
-0.5         0.5           8
-0.5         0.5        8.25
-0.5         0.5         8.5
-0.5         0.5        8.75
-0.5         0.5           9
-0.5         0.5        9.25
-0.5         0.5         9.5
-0.5         0.5        9.75
-0.25       -0.25           0
-0.25  6.8756e-13           0
-0.25        0.25           0
-6.8756e-13       -0.25           0
-3.7821e-24           0           0
6.8756e-13        0.25           0
0.25       -0.25           0
0.25 -6.8756e-13           0
0.25        0.25           0
-0.25        -0.5        0.25
-0.25        -0.5         0.5
-0.25        -0.5        0.75
-0.25        -0.5           1
-0.25        -0.5        1.25
-0.25        -0.5         1.5
-0.25        -0.5        1.75
-0.25        -0.5           2
-0.25        -0.5        2.25
-0.25        -0.5         2.5
-0.25        -0.5        2.75
-0.25        -0.5           3
-0.25        -0.5        3.25
-0.25        -0.5         3.5
-0.25        -0.5        3.75
-0.25        -0.5           4
-0.25        -0.5        4.25
-0.25        -0.5         4.5
-0.25        -0.5        4.75
-0.25        -0.5           5
-0.25        -0.5        5.25
-0.25        -0.5         5.5
-0.25        -0.5        5.75
-0.25        -0.5           6
-0.25        -0.5        6.25
-0.25        -0.5         6.5
-0.25        -0.5        6.75
-0.25        -0.5           7
-0.25        -0.5        7.25
-0.25        -0.5         7.5
-0.25        -0.5        7.75
-0.25        -0.5           8
-0.25        -0.5        8.25
-0.25        -0.5         8.5
-0.25        -0.5        8.75
-0.25        -0.5           9
-0.25        -0.5        9.25
-0.25        -0.5         9.5
-0.25        -0.5        9.75
-1.3751e-12        -0.5        0.25
-1.3751e-12        -0.5         0.5
-1.3751e-12        -0.5        0.75
-1.3751e-12        -0.5           1
-1.3751e-12        -0.5        1.25
-1.3751e-12        -0.5         1.5
-1.3751e-12        -0.5        1.75
-1.3751e-12        -0.5           2
-1.3751e-12        -0.5        2.25
-1.3751e-12        -0.5         2.5
-1.3751e-12        -0.5        2.75
-1.3751e-12        -0.5           3
-1.3751e-12        -0.5        3.25
-1.3751e-12        -0.5         3.5
-1.3751e-12        -0.5        3.75
-1.3751e-12        -0.5           4
-1.3751e-12        -0.5        4.25
-1.3751e-12        -0.5         4.5
-1.3751e-12        -0.5        4.75
-1.3751e-12        -0.5           5
-1.3751e-12        -0.5        5.25
-1.3751e-12        -0.5         5.5
-1.3751e-12        -0.5        5.75
-1.3751e-12        -0.5           6
-1.3751e-12        -0.5        6.25
-1.3751e-12        -0.5         6.5
-1.3751e-12        -0.5        6.75
-1.3751e-12        -0.5           7
-1.3751e-12        -0.5        7.25
-1.3751e-12        -0.5         7.5
-1.3751e-12        -0.5        7.75
-1.3751e-12        -0.5           8
-1.3751e-12        -0.5        8.25
-1.3751e-12        -0.5         8.5
-1.3751e-12        -0.5        8.75
-1.3751e-12        -0.5           9
-1.3751e-12        -0.5        9.25
-1.3751e-12        -0.5         9.5
-1.3751e-12        -0.5        9.75
0.25        -0.5        0.25
0.25        -0.5         0.5
0.25        -0.5        0.75
0.25        -0.5           1
0.25        -0.5        1.25
0.25        -0.5         1.5
0.25        -0.5        1.75
0.25        -0.5           2
0.25        -0.5        2.25
0.25        -0.5         2.5
0.25        -0.5        2.75
0.25        -0.5           3
0.25        -0.5        3.25
0.25        -0.5         3.5
0.25        -0.5        3.75
0.25        -0.5           4
0.25        -0.5        4.25
0.25        -0.5         4.5
0.25        -0.5        4.75
0.25        -0.5           5
0.25        -0.5        5.25
0.25        -0.5         5.5
0.25        -0.5        5.75
0.25        -0.5           6
0.25        -0.5        6.25
0.25        -0.5         6.5
0.25        -0.5        6.75
0.25        -0.5           7
0.25        -0.5        7.25
0.25        -0.5         7.5
0.25        -0.5        7.75
0.25        -0.5           8
0.25        -0.5        8.25
0.25        -0.5         8.5
0.25        -0.5        8.75
0.25        -0.5           9
0.25        -0.5        9.25
0.25        -0.5         9.5
0.25        -0.5        9.75
0.5       -0.25        0.25
0.5       -0.25         0.5
0.5       -0.25        0.75
0.5       -0.25           1
0.5       -0.25        1.25
0.5       -0.25         1.5
0.5       -0.25        1.75
0.5       -0.25           2
0.5       -0.25        2.25
0.5       -0.25         2.5
0.5       -0.25        2.75
0.5       -0.25           3
0.5       -0.25        3.25
0.5       -0.25         3.5
0.5       -0.25        3.75
0.5       -0.25           4
0.5       -0.25        4.25
[...]
POINT_DATA 1025
VECTORS displacement double
0  0  0
0  0  0
0  0  0
0  0  0
0.36205      1.1935    -0.55859
-1.1935     0.36205    -0.55859
-0.36205     -1.1935    -0.55859
1.1935    -0.36205    -0.55859
0  0  0
0  0  0
0  0  0
0  0  0
0  0  0
0  0  0
0  0  0
0  0  0
0  0  0
0  0  0
0  0  0
0  0  0
-0.026842     0.98565    -0.57088
-0.41573     0.77779    -0.51929
-0.80463     0.56992    -0.48374
-0.98565   -0.026842    -0.57088
-0.77779    -0.41573    -0.51929
-0.56992    -0.80463    -0.48374
0.026842    -0.98565    -0.57088
0.41573    -0.77779    -0.51929
0.80463    -0.56992    -0.48374
0.98565    0.026842    -0.57088
0.77779     0.41573    -0.51929
0.56992     0.80463    -0.48374
0.13055   -0.074072  -0.0034589
0.29116    -0.14423   -0.019685
0.46573    -0.17415   -0.035241
0.6418    -0.15994   -0.049124
0.8074    -0.10139   -0.061724
0.95175  -0.0024259   -0.073762
1.0656     0.13023   -0.085703
1.1415     0.28767   -0.097686
1.1745     0.45934    -0.10971
1.1623     0.63375    -0.12175
1.1059     0.79921     -0.1338
1.0088     0.94463    -0.14584
0.8777      1.0603    -0.15789
0.7213      1.1384    -0.16993
0.55009      1.1739    -0.18197
0.37552      1.1641    -0.19402
0.20929        1.11    -0.20606
0.062519       1.015     -0.2181
-0.054962     0.88549    -0.23015
-0.13529      0.7302    -0.24219
-0.17309      0.5595    -0.25423
-0.16582     0.38482    -0.26628
-0.11398     0.21784    -0.27832
-0.021037     0.06976    -0.29036
0.10679    -0.04952    -0.30241
0.26094    -0.13201    -0.31445
0.4311    -0.17219    -0.32649
0.60587    -0.16737    -0.33853
0.77355    -0.11786    -0.35058
0.92292   -0.026987    -0.36263
1.044    0.099168    -0.37469
1.1286     0.25213    -0.38676
1.1713     0.42159    -0.39875
1.1691     0.59611     -0.4105
1.122     0.76403    -0.42181
1.0321     0.91432    -0.43308
0.90245      1.0371     -0.4468
0.73807      1.1238    -0.46935
0.55068      1.1706    -0.50667
0.074072     0.13055  -0.0034589
0.14423     0.29116   -0.019685
0.17415     0.46573   -0.035241
0.15994      0.6418   -0.049124
0.10139      0.8074   -0.061724
0.0024259     0.95175   -0.073762
-0.13023      1.0656   -0.085703
-0.28767      1.1415   -0.097686
-0.45934      1.1745    -0.10971
-0.63375      1.1623    -0.12175
-0.79921      1.1059     -0.1338
-0.94463      1.0088    -0.14584
-1.0603      0.8777    -0.15789
-1.1384      0.7213    -0.16993
-1.1739     0.55009    -0.18197
-1.1641     0.37552    -0.19402
-1.11     0.20929    -0.20606
-1.015    0.062519     -0.2181
-0.88549   -0.054962    -0.23015
-0.7302    -0.13529    -0.24219
-0.5595    -0.17309    -0.25423
-0.38482    -0.16582    -0.26628
-0.21784    -0.11398    -0.27832
-0.06976   -0.021037    -0.29036
0.04952     0.10679    -0.30241
0.13201     0.26094    -0.31445
0.17219      0.4311    -0.32649
0.16737     0.60587    -0.33853
0.11786     0.77355    -0.35058
0.026987     0.92292    -0.36263
-0.099168       1.044    -0.37469
-0.25213      1.1286    -0.38676
-0.42159      1.1713    -0.39875
-0.59611      1.1691     -0.4105
-0.76403       1.122    -0.42181
-0.91432      1.0321    -0.43308
-1.0371     0.90245     -0.4468
-1.1238     0.73807    -0.46935
-1.1706     0.55068    -0.50667
-0.13055    0.074072  -0.0034589
-0.29116     0.14423   -0.019685
-0.46573     0.17415   -0.035241
-0.6418     0.15994   -0.049124
-0.8074     0.10139   -0.061724
-0.95175   0.0024259   -0.073762
-1.0656    -0.13023   -0.085703
-1.1415    -0.28767   -0.097686
-1.1745    -0.45934    -0.10971
-1.1623    -0.63375    -0.12175
-1.1059    -0.79921     -0.1338
-1.0088    -0.94463    -0.14584
-0.8777     -1.0603    -0.15789
-0.7213     -1.1384    -0.16993
-0.55009     -1.1739    -0.18197
-0.37552     -1.1641    -0.19402
-0.20929       -1.11    -0.20606
-0.062519      -1.015     -0.2181
0.054962    -0.88549    -0.23015
0.13529     -0.7302    -0.24219
0.17309     -0.5595    -0.25423
0.16582    -0.38482    -0.26628
0.11398    -0.21784    -0.27832
0.021037    -0.06976    -0.29036
-0.10679     0.04952    -0.30241
-0.26094     0.13201    -0.31445
-0.4311     0.17219    -0.32649
-0.60587     0.16737    -0.33853
-0.77355     0.11786    -0.35058
-0.92292    0.026987    -0.36263
-1.044   -0.099168    -0.37469
-1.1286    -0.25213    -0.38676
-1.1713    -0.42159    -0.39875
-1.1691    -0.59611     -0.4105
-1.122    -0.76403    -0.42181
-1.0321    -0.91432    -0.43308
-0.90245     -1.0371     -0.4468
-0.73807     -1.1238    -0.46935
-0.55068     -1.1706    -0.50667
-0.074072    -0.13055  -0.0034589
-0.14423    -0.29116   -0.019685
-0.17415    -0.46573   -0.035241
-0.15994     -0.6418   -0.049124
-0.10139     -0.8074   -0.061724
-0.0024259    -0.95175   -0.073762
0.13023     -1.0656   -0.085703
0.28767     -1.1415   -0.097686
0.45934     -1.1745    -0.10971
0.63375     -1.1623    -0.12175
0.79921     -1.1059     -0.1338
0.94463     -1.0088    -0.14584
1.0603     -0.8777    -0.15789
1.1384     -0.7213    -0.16993
1.1739    -0.55009    -0.18197
1.1641    -0.37552    -0.19402
1.11    -0.20929    -0.20606
1.015   -0.062519     -0.2181
0.88549    0.054962    -0.23015
0.7302     0.13529    -0.24219
0.5595     0.17309    -0.25423
0.38482     0.16582    -0.26628
0.21784     0.11398    -0.27832
0.06976    0.021037    -0.29036
-0.04952    -0.10679    -0.30241
-0.13201    -0.26094    -0.31445
-0.17219     -0.4311    -0.32649
-0.16737    -0.60587    -0.33853
-0.11786    -0.77355    -0.35058
-0.026987    -0.92292    -0.36263
0.099168      -1.044    -0.37469
0.25213     -1.1286    -0.38676
0.42159     -1.1713    -0.39875
0.59611     -1.1691     -0.4105
0.76403      -1.122    -0.42181
0.91432     -1.0321    -0.43308
1.0371    -0.90245     -0.4468
1.1238    -0.73807    -0.46935
1.1706    -0.55068    -0.50667
0  0  0
0  0  0
0  0  0
0  0  0
0  0  0
0  0  0
0  0  0
0  0  0
0  0  0
0.11785   -0.026174    -0.04008
0.25223   -0.035242   -0.060827
0.39078   -0.015046   -0.075864
0.51968    0.039071   -0.088742
0.62963     0.12388    -0.10079
0.71365     0.23386    -0.11271
0.76646     0.36166    -0.12468
0.78466     0.49875     -0.1367
0.76708     0.63595    -0.14874
0.71488     0.76406    -0.16079
0.63157     0.87449    -0.17283
0.52271     0.95986    -0.18487
0.3956      1.0144    -0.19692
0.25874      1.0346    -0.20896
0.12129      1.0189      -0.221
-0.0075371     0.96853    -0.23305
-0.11913     0.88677    -0.24509
-0.206     0.77912    -0.25713
-0.26235     0.65278    -0.26918
-0.2844     0.51621    -0.28122
-0.27067     0.37856    -0.29326
-0.22208     0.24904    -0.30531
-0.14189     0.13632    -0.31735
-0.035462    0.047944    -0.32939
0.090077   -0.010164    -0.34144
0.22632   -0.034119    -0.35348
0.36415   -0.022315    -0.36552
0.49434    0.024458    -0.37756
0.60817     0.10307    -0.38961
0.69802     0.20826    -0.40166
0.75788     0.33299    -0.41371
0.78376     0.46887    -0.42575
0.77401     0.60679    -0.43774
0.72936     0.73751     -0.4496
0.65265     0.85225    -0.46132
0.54798     0.94295    -0.47337
0.42004      1.0018    -0.48745
0.27493      1.0221    -0.50723
0.12642      1.0054    -0.53272
0.11189    0.023303  -0.0075643
0.22035    0.069914   -0.021609
0.32338     0.14245   -0.036782
0.40551     0.23822   -0.049777
0.45974      0.3514   -0.061808
0.48267     0.47439   -0.073687
0.47312     0.59904   -0.085643
0.43188     0.71707   -0.097663
0.36173     0.82059    -0.10971
0.26736     0.90266    -0.12176
0.1551     0.95778     -0.1338
0.032458     0.98225    -0.14585
-0.092359     0.97444    -0.15789
-0.21099     0.93486    -0.16993
-0.3155     0.86617    -0.18197
-0.39889     0.77296    -0.19402
-0.45557     0.66149    -0.20606
-0.48175      0.5392     -0.2181
-0.47568     0.41428    -0.23015
-0.43777     0.29511    -0.24219
-0.37054     0.18965    -0.25423
-0.27851     0.10497    -0.26628
-0.16784    0.046734    -0.27832
-0.045925    0.018844    -0.29036
0.079061    0.023168    -0.30241
0.19875    0.059413    -0.31445
0.30514     0.12516    -0.32649
0.3911     0.21599    -0.33853
0.45087     0.32585    -0.35058
0.48046     0.44736    -0.36262
0.47788     0.57241    -0.37468
0.44332     0.69261    -0.38675
0.37916      0.7999    -0.39884
0.2898     0.88713    -0.41084
0.18122      0.9484    -0.42247
0.06025     0.97918    -0.43333
-0.066209     0.97568    -0.44362
-0.19202     0.93479    -0.45708
-0.30878      0.8591    -0.48119
0.09506    0.082481     0.01932
0.1824     0.18527    0.015726
0.24755     0.30834   0.0031692
0.28077      0.4438   -0.009965
0.27794     0.58264   -0.022495
0.23925     0.71558   -0.034631
0.16762      0.8339   -0.046645
0.067997     0.92983   -0.058657
-0.052916       0.997   -0.070687
-0.18702      1.0309   -0.082727
-0.32535      1.0293   -0.094771
-0.45863     0.99226    -0.10682
-0.57795     0.92225    -0.11886
-0.6753     0.82397     -0.1309
-0.74419     0.70401    -0.14295
-0.77999     0.57039    -0.15499
-0.78031     0.43205    -0.16703
-0.74512     0.29827    -0.17907
-0.67679     0.17799    -0.19112
-0.57989    0.079266    -0.20316
-0.4609   0.0087109     -0.2152
-0.32779   -0.028953    -0.22725
-0.18947   -0.031206    -0.23929
-0.055209   0.0021051    -0.25133
0.066015    0.068749    -0.26338
0.16608     0.16426    -0.27542
0.23829     0.28225    -0.28746
0.27781     0.41482     -0.2995
0.282      0.5531    -0.31155
0.25056     0.68782    -0.32359
0.18561     0.80997    -0.33565
0.091517     0.91139    -0.34771
-0.025371     0.98528    -0.35978
-0.15713      1.0267    -0.37176
-0.29489      1.0328    -0.38343
-0.4296      1.0026    -0.39459
-0.55304     0.93616    -0.40581
-0.65838     0.83457    -0.42005
-0.74233     0.70189    -0.44691
0.026174     0.11785    -0.04008
0.035242     0.25223   -0.060827
0.015046     0.39078   -0.075864
-0.039071     0.51968   -0.088742
-0.12388     0.62963    -0.10079
-0.23386     0.71365    -0.11271
-0.36166     0.76646    -0.12468
-0.49875     0.78466     -0.1367
-0.63595     0.76708    -0.14874
-0.76406     0.71488    -0.16079
-0.87449     0.63157    -0.17283
-0.95986     0.52271    -0.18487
-1.0144      0.3956    -0.19692
-1.0346     0.25874    -0.20896
-1.0189     0.12129      -0.221
-0.96853  -0.0075371    -0.23305
-0.88677    -0.11913    -0.24509
-0.77912      -0.206    -0.25713
-0.65278    -0.26235    -0.26918
-0.51621     -0.2844    -0.28122
-0.37856    -0.27067    -0.29326
-0.24904    -0.22208    -0.30531
-0.13632    -0.14189    -0.31735
-0.047944   -0.035462    -0.32939
0.010164    0.090077    -0.34144
0.034119     0.22632    -0.35348
0.022315     0.36415    -0.36552
-0.024458     0.49434    -0.37756
-0.10307     0.60817    -0.38961
-0.20826     0.69802    -0.40166
-0.33299     0.75788    -0.41371
-0.46887     0.78376    -0.42575
-0.60679     0.77401    -0.43774
-0.73751     0.72936     -0.4496
-0.85225     0.65265    -0.46132
-0.94295     0.54798    -0.47337
-1.0018     0.42004    -0.48745
-1.0221     0.27493    -0.50723
-1.0054     0.12642    -0.53272
-0.023303     0.11189  -0.0075643
-0.069914     0.22035   -0.021609
-0.14245     0.32338   -0.036782
-0.23822     0.40551   -0.049777
-0.3514     0.45974   -0.061808
-0.47439     0.48267   -0.073687
-0.59904     0.47312   -0.085643
-0.71707     0.43188   -0.097663
-0.82059     0.36173    -0.10971
-0.90266     0.26736    -0.12176
-0.95778      0.1551     -0.1338
-0.98225    0.032458    -0.14585
-0.97444   -0.092359    -0.15789
-0.93486    -0.21099    -0.16993
-0.86617     -0.3155    -0.18197
-0.77296    -0.39889    -0.19402
-0.66149    -0.45557    -0.20606
-0.5392    -0.48175     -0.2181
-0.41428    -0.47568    -0.23015
-0.29511    -0.43777    -0.24219
-0.18965    -0.37054    -0.25423
-0.10497    -0.27851    -0.26628
-0.046734    -0.16784    -0.27832
-0.018844   -0.045925    -0.29036
-0.023168    0.079061    -0.30241
-0.059413     0.19875    -0.31445
-0.12516     0.30514    -0.32649
-0.21599      0.3911    -0.33853
-0.32585     0.45087    -0.35058
-0.44736     0.48046    -0.36262
-0.57241     0.47788    -0.37468
-0.69261     0.44332    -0.38675
-0.7999     0.37916    -0.39884
-0.88713      0.2898    -0.41084
-0.9484     0.18122    -0.42247
-0.97918     0.06025    -0.43333
-0.97568   -0.066209    -0.44362
-0.93479    -0.19202    -0.45708
-0.8591    -0.30878    -0.48119
-0.082481     0.09506     0.01932
-0.18527      0.1824    0.015726
-0.30834     0.24755   0.0031692
-0.4438     0.28077   -0.009965
-0.58264     0.27794   -0.022495
-0.71558     0.23925   -0.034631
-0.8339     0.16762   -0.046645
-0.92983    0.067997   -0.058657
-0.997   -0.052916   -0.070687
-1.0309    -0.18702   -0.082727
-1.0293    -0.32535   -0.094771
-0.99226    -0.45863    -0.10682
-0.92225    -0.57795    -0.11886
-0.82397     -0.6753     -0.1309
-0.70401    -0.74419    -0.14295
-0.57039    -0.77999    -0.15499
-0.43205    -0.78031    -0.16703
-0.29827    -0.74512    -0.17907
-0.17799    -0.67679    -0.19112
-0.079266    -0.57989    -0.20316
-0.0087109     -0.4609     -0.2152
0.028953    -0.32779    -0.22725
0.031206    -0.18947    -0.23929
-0.0021051   -0.055209    -0.25133
-0.068749    0.066015    -0.26338
-0.16426     0.16608    -0.27542
-0.28225     0.23829    -0.28746
-0.41482     0.27781     -0.2995
-0.5531       0.282    -0.31155
-0.68782     0.25056    -0.32359
-0.80997     0.18561    -0.33565
-0.91139    0.091517    -0.34771
-0.98528   -0.025371    -0.35978
-1.0267    -0.15713    -0.37176
-1.0328    -0.29489    -0.38343
-1.0026     -0.4296    -0.39459
-0.93616    -0.55304    -0.40581
-0.83457    -0.65838    -0.42005
-0.70189    -0.74233    -0.44691
-0.11785    0.026174    -0.04008
-0.25223    0.035242   -0.060827
-0.39078    0.015046   -0.075864
-0.51968   -0.039071   -0.088742
-0.62963    -0.12388    -0.10079
-0.71365    -0.23386    -0.11271
-0.76646    -0.36166    -0.12468
-0.78466    -0.49875     -0.1367
-0.76708    -0.63595    -0.14874
-0.71488    -0.76406    -0.16079
-0.63157    -0.87449    -0.17283
-0.52271    -0.95986    -0.18487
-0.3956     -1.0144    -0.19692
-0.25874     -1.0346    -0.20896
-0.12129     -1.0189      -0.221
0.0075371    -0.96853    -0.23305
0.11913    -0.88677    -0.24509
0.206    -0.77912    -0.25713
0.26235    -0.65278    -0.26918
0.2844    -0.51621    -0.28122
0.27067    -0.37856    -0.29326
0.22208    -0.24904    -0.30531
0.14189    -0.13632    -0.31735
0.035462   -0.047944    -0.32939
-0.090077    0.010164    -0.34144
-0.22632    0.034119    -0.35348
-0.36415    0.022315    -0.36552
-0.49434   -0.024458    -0.37756
-0.60817    -0.10307    -0.38961
-0.69802    -0.20826    -0.40166
-0.75788    -0.33299    -0.41371
-0.78376    -0.46887    -0.42575
-0.77401    -0.60679    -0.43774
-0.72936    -0.73751     -0.4496
-0.65265    -0.85225    -0.46132
-0.54798    -0.94295    -0.47337
-0.42004     -1.0018    -0.48745
-0.27493     -1.0221    -0.50723
-0.12642     -1.0054    -0.53272
-0.11189   -0.023303  -0.0075643
-0.22035   -0.069914   -0.021609
-0.32338    -0.14245   -0.036782
-0.40551    -0.23822   -0.049777
-0.45974     -0.3514   -0.061808
-0.48267    -0.47439   -0.073687
-0.47312    -0.59904   -0.085643
-0.43188    -0.71707   -0.097663
-0.36173    -0.82059    -0.10971
-0.26736    -0.90266    -0.12176
-0.1551    -0.95778     -0.1338
-0.032458    -0.98225    -0.14585
0.092359    -0.97444    -0.15789
0.21099    -0.93486    -0.16993
0.3155    -0.86617    -0.18197
0.39889    -0.77296    -0.19402
0.45557    -0.66149    -0.20606
0.48175     -0.5392     -0.2181
0.47568    -0.41428    -0.23015
0.43777    -0.29511    -0.24219
0.37054    -0.18965    -0.25423
0.27851    -0.10497    -0.26628
0.16784   -0.046734    -0.27832
0.045925   -0.018844    -0.29036
-0.079061   -0.023168    -0.30241
-0.19875   -0.059413    -0.31445
-0.30514    -0.12516    -0.32649
-0.3911    -0.21599    -0.33853
-0.45087    -0.32585    -0.35058
-0.48046    -0.44736    -0.36262
-0.47788    -0.57241    -0.37468
-0.44332    -0.69261    -0.38675
-0.37916     -0.7999    -0.39884
-0.2898    -0.88713    -0.41084
-0.18122     -0.9484    -0.42247
-0.06025    -0.97918    -0.43333
0.066209    -0.97568    -0.44362
0.19202    -0.93479    -0.45708
0.30878     -0.8591    -0.48119
-0.09506   -0.082481     0.01932
-0.1824    -0.18527    0.015726
-0.24755    -0.30834   0.0031692
-0.28077     -0.4438   -0.009965
-0.27794    -0.58264   -0.022495
-0.23925    -0.71558   -0.034631
-0.16762     -0.8339   -0.046645
-0.067997    -0.92983   -0.058657
0.052916      -0.997   -0.070687
0.18702     -1.0309   -0.082727
0.32535     -1.0293   -0.094771
0.45863    -0.99226    -0.10682
0.57795    -0.92225    -0.11886
0.6753    -0.82397     -0.1309
0.74419    -0.70401    -0.14295
0.77999    -0.57039    -0.15499
0.78031    -0.43205    -0.16703
0.74512    -0.29827    -0.17907
0.67679    -0.17799    -0.19112
0.57989   -0.079266    -0.20316
0.4609  -0.0087109     -0.2152
0.32779    0.028953    -0.22725
0.18947    0.031206    -0.23929
0.055209  -0.0021051    -0.25133
-0.066015   -0.068749    -0.26338
-0.16608    -0.16426    -0.27542
-0.23829    -0.28225    -0.28746
-0.27781    -0.41482     -0.2995
-0.282     -0.5531    -0.31155
-0.25056    -0.68782    -0.32359
-0.18561    -0.80997    -0.33565
-0.091517    -0.91139    -0.34771
0.025371    -0.98528    -0.35978
0.15713     -1.0267    -0.37176
0.29489     -1.0328    -0.38343
0.4296     -1.0026    -0.39459
0.55304    -0.93616    -0.40581
0.65838    -0.83457    -0.42005
0.74233    -0.70189    -0.44691
-0.026174    -0.11785    -0.04008
-0.035242    -0.25223   -0.060827
-0.015046    -0.39078   -0.075864
0.039071    -0.51968   -0.088742
0.12388    -0.62963    -0.10079
0.23386    -0.71365    -0.11271
0.36166    -0.76646    -0.12468
0.49875    -0.78466     -0.1367
0.63595    -0.76708    -0.14874
0.76406    -0.71488    -0.16079
0.87449    -0.63157    -0.17283
0.95986    -0.52271    -0.18487
1.0144     -0.3956    -0.19692
1.0346    -0.25874    -0.20896
1.0189    -0.12129      -0.221
0.96853   0.0075371    -0.23305
0.88677     0.11913    -0.24509
0.77912       0.206    -0.25713
0.65278     0.26235    -0.26918
0.51621      0.2844    -0.28122
0.37856     0.27067    -0.29326
0.24904     0.22208    -0.30531
0.13632     0.14189    -0.31735
0.047944    0.035462    -0.32939
-0.010164   -0.090077    -0.34144
-0.034119    -0.22632    -0.35348
-0.022315    -0.36415    -0.36552
0.024458    -0.49434    -0.37756
0.10307    -0.60817    -0.38961
0.20826    -0.69802    -0.40166
0.33299    -0.75788    -0.41371
0.46887    -0.78376    -0.42575
0.60679    -0.77401    -0.43774
0.73751    -0.72936     -0.4496
0.85225    -0.65265    -0.46132
0.94295    -0.54798    -0.47337
1.0018    -0.42004    -0.48745
1.0221    -0.27493    -0.50723
1.0054    -0.12642    -0.53272
0.023303    -0.11189  -0.0075643
0.069914    -0.22035   -0.021609
0.14245    -0.32338   -0.036782
0.23822    -0.40551   -0.049777
0.3514    -0.45974   -0.061808
0.47439    -0.48267   -0.073687
0.59904    -0.47312   -0.085643
0.71707    -0.43188   -0.097663
0.82059    -0.36173    -0.10971
0.90266    -0.26736    -0.12176
0.95778     -0.1551     -0.1338
0.98225   -0.032458    -0.14585
0.97444    0.092359    -0.15789
0.93486     0.21099    -0.16993
0.86617      0.3155    -0.18197
0.77296     0.39889    -0.19402
0.66149     0.45557    -0.20606
0.5392     0.48175     -0.2181
0.41428     0.47568    -0.23015
0.29511     0.43777    -0.24219
0.18965     0.37054    -0.25423
0.10497     0.27851    -0.26628
0.046734     0.16784    -0.27832
0.018844    0.045925    -0.29036
0.023168   -0.079061    -0.30241
0.059413    -0.19875    -0.31445
0.12516    -0.30514    -0.32649
0.21599     -0.3911    -0.33853
0.32585    -0.45087    -0.35058
0.44736    -0.48046    -0.36262
0.57241    -0.47788    -0.37468
0.69261    -0.44332    -0.38675
0.7999    -0.37916    -0.39884
0.88713     -0.2898    -0.41084
0.9484    -0.18122    -0.42247
0.97918    -0.06025    -0.43333
0.97568    0.066209    -0.44362
0.93479     0.19202    -0.45708
0.8591     0.30878    -0.48119
0.082481    -0.09506     0.01932
0.18527     -0.1824    0.015726
0.30834    -0.24755   0.0031692
0.4438    -0.28077   -0.009965
0.58264    -0.27794   -0.022495
0.71558    -0.23925   -0.034631
0.8339    -0.16762   -0.046645