# vtk DataFile Version 3.0
VTK Output
ASCII
DATASET UNSTRUCTURED_GRID

POINTS 1025 float
-0.5        -0.5           0
0.5        -0.5           0
0.5         0.5           0
-0.5         0.5           0
-0.5         -0.5           10
0.5         -0.5           10
0.5          0.5           10
-0.5          0.5           10
-0.25        -0.5           0
-1.3751e-12        -0.5           0
0.25        -0.5           0
0.5       -0.25           0
0.5 -1.3751e-12           0
0.5        0.25           0
0.25         0.5           0
1.3751e-12         0.5           0
-0.25         0.5           0
-0.5        0.25           0
-0.5  1.3751e-12           0
-0.5       -0.25           0
-0.25         -0.5           10
-1.37512e-12         -0.5           10
0.25         -0.5           10
0.5        -0.25           10
0.5 -1.37512e-12           10
0.5         0.25           10
0.25          0.5           10
1.37512e-12          0.5           10
-0.25          0.5           10
-0.5         0.25           10
-0.5  1.37512e-12           10
-0.5        -0.25           10
-0.5        -0.5        0.25
-0.5        -0.5         0.5
-0.5        -0.5        0.75
-0.5        -0.5           1
-0.5        -0.5        1.25
-0.5        -0.5         1.5
-0.5        -0.5        1.75
-0.5        -0.5           2
-0.5        -0.5        2.25
-0.5        -0.5         2.5
-0.5        -0.5        2.75
-0.5        -0.5           3
-0.5        -0.5        3.25
-0.5        -0.5         3.5
-0.5        -0.5        3.75
-0.5        -0.5           4
-0.5        -0.5        4.25
-0.5        -0.5         4.5
-0.5        -0.5        4.75
-0.5        -0.5           5
-0.5        -0.5        5.25
-0.5        -0.5         5.5
-0.5        -0.5        5.75
-0.5        -0.5           6
-0.5        -0.5        6.25
-0.5        -0.5         6.5
-0.5        -0.5        6.75
-0.5        -0.5           7
-0.5        -0.5        7.25
-0.5        -0.5         7.5
-0.5        -0.5        7.75
-0.5        -0.5           8
-0.5        -0.5        8.25
-0.5        -0.5         8.5
-0.5        -0.5        8.75
-0.5        -0.5           9
-0.5        -0.5        9.25
-0.5        -0.5         9.5
-0.5        -0.5        9.75
0.5        -0.5        0.25
0.5        -0.5         0.5
0.5        -0.5        0.75
0.5        -0.5           1
0.5        -0.5        1.25
0.5        -0.5         1.5
0.5        -0.5        1.75
0.5        -0.5           2
0.5        -0.5        2.25
0.5        -0.5         2.5
0.5        -0.5        2.75
0.5        -0.5           3
0.5        -0.5        3.25
0.5        -0.5         3.5
0.5        -0.5        3.75
0.5        -0.5           4
0.5        -0.5        4.25
0.5        -0.5         4.5
0.5        -0.5        4.75
0.5        -0.5           5
0.5        -0.5        5.25
0.5        -0.5         5.5
0.5        -0.5        5.75
0.5        -0.5           6
0.5        -0.5        6.25
0.5        -0.5         6.5
0.5        -0.5        6.75
0.5        -0.5           7
0.5        -0.5        7.25
0.5        -0.5         7.5
0.5        -0.5        7.75
0.5        -0.5           8
0.5        -0.5        8.25
0.5        -0.5         8.5
0.5        -0.5        8.75
0.5        -0.5           9
0.5        -0.5        9.25
0.5        -0.5         9.5
0.5        -0.5        9.75
0.5         0.5        0.25
0.5         0.5         0.5
0.5         0.5        0.75
0.5         0.5           1
0.5         0.5        1.25
0.5         0.5         1.5
0.5         0.5        1.75
0.5         0.5           2
0.5         0.5        2.25
0.5         0.5         2.5
0.5         0.5        2.75
0.5         0.5           3
0.5         0.5        3.25
0.5         0.5         3.5
0.5         0.5        3.75
0.5         0.5           4
0.5         0.5        4.25
0.5         0.5         4.5
0.5         0.5        4.75
0.5         0.5           5
0.5         0.5        5.25
0.5         0.5         5.5
0.5         0.5        5.75
0.5         0.5           6
0.5         0.5        6.25
0.5         0.5         6.5
0.5         0.5        6.75
0.5         0.5           7
0.5         0.5        7.25
0.5         0.5         7.5
0.5         0.5        7.75
0.5         0.5           8
0.5         0.5        8.25
0.5         0.5         8.5
0.5         0.5        8.75
0.5         0.5           9
0.5         0.5        9.25
0.5         0.5         9.5
0.5         0.5        9.75
-0.5         0.5        0.25
-0.5         0.5         0.5
-0.5         0.5        0.75
-0.5         0.5           1
-0.5         0.5        1.25
-0.5         0.5         1.5
-0.5         0.5        1.75
-0.5         0.5           2
-0.5         0.5        2.25
-0.5         0.5         2.5
-0.5         0.5        2.75
-0.5         0.5           3
-0.5         0.5        3.25
-0.5         0.5         3.5
-0.5         0.5        3.75
-0.5         0.5           4
-0.5         0.5        4.25
-0.5         0.5         4.5
-0.5         0.5        4.75
-0.5         0.5           5
-0.5         0.5        5.25
-0.5         0.5         5.5
-0.5         0.5        5.75
-0.5         0.5           6
-0.5         0.5        6.25
-0.5         0.5         6.5
-0.5         0.5        6.75
-0.5         0.5           7
-0.5         0.5        7.25
-0.5         0.5         7.5
-0.5         0.5        7.75
-0.5         0.5           8
-0.5         0.5        8.25
-0.5         0.5         8.5
-0.5         0.5        8.75
-0.5         0.5           9
-0.5         0.5        9.25
-0.5         0.5         9.5
-0.5         0.5        9.75
-0.25       -0.25           0
-0.25  6.8756e-13           0
-0.25        0.25           0
-6.8756e-13       -0.25           0
-3.7821e-24           0           0
6.8756e-13        0.25           0
0.25       -0.25           0
0.25 -6.8756e-13           0
0.25        0.25           0
-0.25        -0.5        0.25
-0.25        -0.5         0.5
-0.25        -0.5        0.75
-0.25        -0.5           1
-0.25        -0.5        1.25
-0.25        -0.5         1.5
-0.25        -0.5        1.75
-0.25        -0.5           2
-0.25        -0.5        2.25
-0.25        -0.5         2.5
-0.25        -0.5        2.75
-0.25        -0.5           3
-0.25        -0.5        3.25
-0.25        -0.5         3.5
-0.25        -0.5        3.75
-0.25        -0.5           4
-0.25        -0.5        4.25
-0.25        -0.5         4.5
-0.25        -0.5        4.75
-0.25        -0.5           5
-0.25        -0.5        5.25
-0.25        -0.5         5.5
-0.25        -0.5        5.75
-0.25        -0.5           6
-0.25        -0.5        6.25
-0.25        -0.5         6.5
-0.25        -0.5        6.75
-0.25        -0.5           7
-0.25        -0.5        7.25
-0.25        -0.5         7.5
-0.25        -0.5        7.75
-0.25        -0.5           8
-0.25        -0.5        8.25
-0.25        -0.5         8.5
-0.25        -0.5        8.75
-0.25        -0.5           9
-0.25        -0.5        9.25
-0.25        -0.5         9.5
-0.25        -0.5        9.75
-1.3751e-12        -0.5        0.25
-1.3751e-12        -0.5         0.5
-1.3751e-12        -0.5        0.75
-1.3751e-12        -0.5           1
-1.3751e-12        -0.5        1.25
-1.3751e-12        -0.5         1.5
-1.3751e-12        -0.5        1.75
-1.3751e-12        -0.5           2
-1.3751e-12        -0.5        2.25
-1.3751e-12        -0.5         2.5
-1.3751e-12        -0.5        2.75
-1.3751e-12        -0.5           3
-1.3751e-12        -0.5        3.25
-1.3751e-12        -0.5         3.5
-1.3751e-12        -0.5        3.75
-1.3751e-12        -0.5           4
-1.3751e-12        -0.5        4.25
-1.3751e-12        -0.5         4.5
-1.3751e-12        -0.5        4.75
-1.3751e-12        -0.5           5
-1.3751e-12        -0.5        5.25
-1.3751e-12        -0.5         5.5
-1.3751e-12        -0.5        5.75
-1.3751e-12        -0.5           6
-1.3751e-12        -0.5        6.25
-1.3751e-12        -0.5         6.5
-1.3751e-12        -0.5        6.75
-1.3751e-12        -0.5           7
-1.3751e-12        -0.5        7.25
-1.3751e-12        -0.5         7.5
-1.3751e-12        -0.5        7.75
-1.3751e-12        -0.5           8
-1.3751e-12        -0.5        8.25
-1.3751e-12        -0.5         8.5
-1.3751e-12        -0.5        8.75
-1.3751e-12        -0.5           9
-1.3751e-12        -0.5        9.25
-1.3751e-12        -0.5         9.5
-1.3751e-12        -0.5        9.75
0.25        -0.5        0.25
0.25        -0.5         0.5
0.25        -0.5        0.75
0.25        -0.5           1
0.25        -0.5        1.25
0.25        -0.5         1.5
0.25        -0.5        1.75
0.25        -0.5           2
0.25        -0.5        2.25
0.25        -0.5         2.5
0.25        -0.5        2.75
0.25        -0.5           3
0.25        -0.5        3.25
0.25        -0.5         3.5
0.25        -0.5        3.75
0.25        -0.5           4
0.25        -0.5        4.25
0.25        -0.5         4.5
0.25        -0.5        4.75
0.25        -0.5           5
0.25        -0.5        5.25
0.25        -0.5         5.5
0.25        -0.5        5.75
0.25        -0.5           6
0.25        -0.5        6.25
0.25        -0.5         6.5
0.25        -0.5        6.75
0.25        -0.5           7
0.25        -0.5        7.25
0.25        -0.5         7.5
0.25        -0.5        7.75
0.25        -0.5           8
0.25        -0.5        8.25
0.25        -0.5         8.5
0.25        -0.5        8.75
0.25        -0.5           9
0.25        -0.5        9.25
0.25        -0.5         9.5
0.25        -0.5        9.75
0.5       -0.25        0.25
0.5       -0.25         0.5
0.5       -0.25        0.75
0.5       -0.25           1
0.5       -0.25        1.25
0.5       -0.25         1.5
0.5       -0.25        1.75
0.5       -0.25           2
0.5       -0.25        2.25
0.5       -0.25         2.5
0.5       -0.25        2.75
0.5       -0.25           3
0.5       -0.25        3.25
0.5       -0.25         3.5
0.5       -0.25        3.75
0.5       -0.25           4
0.5       -0.25        4.25
[...]
POINT_DATA 1025
VECTORS displacement double
0  0  0
0  0  0
0  0  0
0  0  0
0.2294    -0.15328    -0.23784
0.15328      0.2294    -0.23784
-0.2294     0.15328    -0.23784
-0.15328     -0.2294    -0.23784
0  0  0
0  0  0
0  0  0
0  0  0
0  0  0
0  0  0
0  0  0
0  0  0
0  0  0
0  0  0
0  0  0
0  0  0
0.21037   -0.057611    -0.25304
0.19134     0.03806    -0.22283
0.17231     0.13373    -0.19979
0.057611     0.21037    -0.25304
-0.03806     0.19134    -0.22283
-0.13373     0.17231    -0.19979
-0.21037    0.057611    -0.25304
-0.19134    -0.03806    -0.22283
-0.17231    -0.13373    -0.19979
-0.057611    -0.21037    -0.25304
0.03806    -0.19134    -0.22283
0.13373    -0.17231    -0.19979
0.082691   -0.057762  -0.0019655
0.18378    -0.11897  -0.0096163
0.29237    -0.16262   -0.016014
0.40586    -0.18794   -0.021761
0.52167    -0.19408   -0.027179
0.63678    -0.18087   -0.032462
0.74804    -0.14868   -0.037722
0.8524    -0.09844   -0.042989
0.94696   -0.031547   -0.048263
1.0291    0.050132    -0.05354
1.0965     0.14432   -0.058818
1.1473     0.24841   -0.064096
1.1801      0.3595   -0.069373
1.194     0.47449   -0.074651
1.1886     0.59019   -0.079928
1.164     0.70339   -0.085206
1.121     0.81092   -0.090483
1.0607     0.90981   -0.095761
0.98478      0.9973    -0.10104
0.89538       1.071    -0.10632
0.79499      1.1287    -0.11159
0.68639       1.169    -0.11687
0.5726      1.1907    -0.12215
0.4568      1.1931    -0.12743
0.3422      1.1763     -0.1327
0.23199      1.1407    -0.13798
0.12923      1.0872    -0.14326
0.036785      1.0174    -0.14854
-0.042773     0.93326    -0.15381
-0.10723     0.83702    -0.15909
-0.1548     0.73141    -0.16437
-0.18416     0.61937    -0.16965
-0.19449     0.50401    -0.17491
-0.18551     0.38857    -0.18013
-0.1574     0.27625    -0.18527
-0.11075     0.17013    -0.19041
-0.046362    0.072988    -0.19619
0.034523   -0.013101    -0.20448
0.12898   -0.087485     -0.2178
0.057762    0.082691  -0.0019655
0.11897     0.18378  -0.0096163
0.16262     0.29237   -0.016014
0.18794     0.40586   -0.021761
0.19408     0.52167   -0.027179
0.18087     0.63678   -0.032462
0.14868     0.74804   -0.037722
0.09844      0.8524   -0.042989
0.031547     0.94696   -0.048263
-0.050132      1.0291    -0.05354
-0.14432      1.0965   -0.058818
-0.24841      1.1473   -0.064096
-0.3595      1.1801   -0.069373
-0.47449       1.194   -0.074651
-0.59019      1.1886   -0.079928
-0.70339       1.164   -0.085206
-0.81092       1.121   -0.090483
-0.90981      1.0607   -0.095761
-0.9973     0.98478    -0.10104
-1.071     0.89538    -0.10632
-1.1287     0.79499    -0.11159
-1.169     0.68639    -0.11687
-1.1907      0.5726    -0.12215
-1.1931      0.4568    -0.12743
-1.1763      0.3422     -0.1327
-1.1407     0.23199    -0.13798
-1.0872     0.12923    -0.14326
-1.0174    0.036785    -0.14854
-0.93326   -0.042773    -0.15381
-0.83702    -0.10723    -0.15909
-0.73141     -0.1548    -0.16437
-0.61937    -0.18416    -0.16965
-0.50401    -0.19449    -0.17491
-0.38857    -0.18551    -0.18013
-0.27625     -0.1574    -0.18527
-0.17013    -0.11075    -0.19041
-0.072988   -0.046362    -0.19619
0.013101    0.034523    -0.20448
0.087485     0.12898     -0.2178
-0.082691    0.057762  -0.0019655
-0.18378     0.11897  -0.0096163
-0.29237     0.16262   -0.016014
-0.40586     0.18794   -0.021761
-0.52167     0.19408   -0.027179
-0.63678     0.18087   -0.032462
-0.74804     0.14868   -0.037722
-0.8524     0.09844   -0.042989
-0.94696    0.031547   -0.048263
-1.0291   -0.050132    -0.05354
-1.0965    -0.14432   -0.058818
-1.1473    -0.24841   -0.064096
-1.1801     -0.3595   -0.069373
-1.194    -0.47449   -0.074651
-1.1886    -0.59019   -0.079928
-1.164    -0.70339   -0.085206
-1.121    -0.81092   -0.090483
-1.0607    -0.90981   -0.095761
-0.98478     -0.9973    -0.10104
-0.89538      -1.071    -0.10632
-0.79499     -1.1287    -0.11159
-0.68639      -1.169    -0.11687
-0.5726     -1.1907    -0.12215
-0.4568     -1.1931    -0.12743
-0.3422     -1.1763     -0.1327
-0.23199     -1.1407    -0.13798
-0.12923     -1.0872    -0.14326
-0.036785     -1.0174    -0.14854
0.042773    -0.93326    -0.15381
0.10723    -0.83702    -0.15909
0.1548    -0.73141    -0.16437
0.18416    -0.61937    -0.16965
0.19449    -0.50401    -0.17491
0.18551    -0.38857    -0.18013
0.1574    -0.27625    -0.18527
0.11075    -0.17013    -0.19041
0.046362   -0.072988    -0.19619
-0.034523    0.013101    -0.20448
-0.12898    0.087485     -0.2178
-0.057762   -0.082691  -0.0019655
-0.11897    -0.18378  -0.0096163
-0.16262    -0.29237   -0.016014
-0.18794    -0.40586   -0.021761
-0.19408    -0.52167   -0.027179
-0.18087    -0.63678   -0.032462
-0.14868    -0.74804   -0.037722
-0.09844     -0.8524   -0.042989
-0.031547    -0.94696   -0.048263
0.050132     -1.0291    -0.05354
0.14432     -1.0965   -0.058818
0.24841     -1.1473   -0.064096
0.3595     -1.1801   -0.069373
0.47449      -1.194   -0.074651
0.59019     -1.1886   -0.079928
0.70339      -1.164   -0.085206
0.81092      -1.121   -0.090483
0.90981     -1.0607   -0.095761
0.9973    -0.98478    -0.10104
1.071    -0.89538    -0.10632
1.1287    -0.79499    -0.11159
1.169    -0.68639    -0.11687
1.1907     -0.5726    -0.12215
1.1931     -0.4568    -0.12743
1.1763     -0.3422     -0.1327
1.1407    -0.23199    -0.13798
1.0872    -0.12923    -0.14326
1.0174   -0.036785    -0.14854
0.93326    0.042773    -0.15381
0.83702     0.10723    -0.15909
0.73141      0.1548    -0.16437
0.61937     0.18416    -0.16965
0.50401     0.19449    -0.17491
0.38857     0.18551    -0.18013
0.27625      0.1574    -0.18527
0.17013     0.11075    -0.19041
0.072988    0.046362    -0.19619
-0.013101   -0.034523    -0.20448
-0.087485    -0.12898     -0.2178
0  0  0
0  0  0
0  0  0
0  0  0
0  0  0
0  0  0
0  0  0
0  0  0
0  0  0
0.07908   -0.024452   -0.024795
0.16676    -0.04271   -0.035205
0.25866    -0.04879   -0.041474
0.35014   -0.039666   -0.046938
0.43858   -0.015563   -0.052208
0.52168     0.02292   -0.057461
0.59719    0.074695   -0.062726
0.66305     0.13831   -0.067999
0.71742     0.21199   -0.073276
0.75878     0.29368   -0.078554
0.786     0.38111   -0.083832
0.7983     0.47185   -0.089109
0.79535     0.56337   -0.094387
0.77724     0.65313   -0.099664
0.74445     0.73863    -0.10494
0.69791     0.81749    -0.11022
0.63892     0.88752     -0.1155
0.5691     0.94677    -0.12077
0.49041     0.99359    -0.12605
0.40503      1.0267    -0.13133
0.31534      1.0451    -0.13661
0.22383      1.0484    -0.14188
0.13304      1.0364    -0.14716
0.045517      1.0095    -0.15244
-0.036323     0.96845    -0.15772
-0.1102     0.91435    -0.16299
-0.17405     0.84872    -0.16827
-0.22611     0.77339    -0.17355
-0.26493     0.69045    -0.17883
-0.28942     0.60222     -0.1841
-0.29891     0.51114    -0.18938
-0.29313     0.41976    -0.19466
-0.27226     0.33062    -0.19993
-0.23688     0.24619    -0.20518
-0.18792     0.16884     -0.2104
-0.12651     0.10078    -0.21567
-0.0538    0.044118    -0.22135
0.028881  0.00055382     -0.2284
0.11805   -0.029585    -0.23793
0.077956    0.010866    -0.00414
0.15276    0.031386   -0.010175
0.22826    0.063562   -0.016436
0.29795     0.10758   -0.021941
0.3592     0.16256   -0.027202
0.41033     0.22695   -0.032446
0.45002     0.29894    -0.03771
0.47717     0.37653   -0.042985
0.49105     0.45755   -0.048263
0.49128     0.53976   -0.053541
0.47784     0.62085   -0.058818
0.4511     0.69859   -0.064096
0.41182      0.7708   -0.069373
0.36109     0.83548   -0.074651
0.30031     0.89083   -0.079928
0.23117     0.93531   -0.085206
0.15561     0.96768   -0.090483
0.075714     0.98703   -0.095761
-0.0062854     0.99284    -0.10104
-0.08811     0.98494    -0.10632
-0.16748     0.96355    -0.11159
-0.2422     0.92927    -0.11687
-0.31018     0.88305    -0.12215
-0.36953     0.82617    -0.12743
-0.4186     0.76021     -0.1327
-0.45602     0.68702    -0.13798
-0.48076     0.60863    -0.14326
-0.49213     0.52721    -0.14854
-0.48981     0.44504    -0.15381
-0.47386      0.3644    -0.15909
-0.44473     0.28753    -0.16437
-0.40324     0.21656    -0.16965
-0.35054     0.15348    -0.17493
-0.2881     0.10005     -0.1802
-0.21766    0.057756    -0.18542
-0.14104    0.027907     -0.1905
-0.060052    0.011672     -0.1954
0.023639    0.009986    -0.20075
0.10811    0.021892    -0.20896
0.068968    0.050057    0.014712
0.13646     0.10972    0.014355
0.19564     0.17988   0.0088647
0.24288      0.2586   0.0032571
0.27632     0.34397  -0.0021359
0.29499     0.43364  -0.0074298
0.29845     0.52515   -0.012702
0.28664     0.61595   -0.017975
0.25991     0.70352    -0.02325
0.21899     0.78544   -0.028527
0.16502     0.85942   -0.033805
0.099515      0.9234   -0.039083
0.024284      0.9756    -0.04436
-0.058577      1.0146   -0.049638
-0.14676      1.0392   -0.054915
-0.23782      1.0489   -0.060193
-0.32922      1.0433    -0.06547
-0.41841      1.0226   -0.070748
-0.50292      0.9873   -0.076025
-0.58039     0.93848   -0.081303
-0.64867     0.87747    -0.08658
-0.70586     0.80596   -0.091858
-0.75038     0.72594   -0.097135
-0.78097     0.63963    -0.10241
-0.79679     0.54944    -0.10769
-0.7974     0.45788    -0.11297
-0.78279     0.36748    -0.11824
-0.75335     0.28077    -0.12352
-0.70992     0.20016     -0.1288
-0.65369     0.12789    -0.13408
-0.58623    0.065975    -0.13936
-0.50942    0.016126    -0.14464
-0.4254   -0.020267    -0.14991
-0.33652   -0.042186    -0.15517
-0.24526    -0.04898    -0.16038
-0.15413   -0.040319    -0.16549
-0.065491   -0.016116    -0.17063
0.018795    0.023344    -0.17654
0.098472    0.076735    -0.18588
0.024452     0.07908   -0.024795
0.04271     0.16676   -0.035205
0.04879     0.25866   -0.041474
0.039666     0.35014   -0.046938
0.015563     0.43858   -0.052208
-0.02292     0.52168   -0.057461
-0.074695     0.59719   -0.062726
-0.13831     0.66305   -0.067999
-0.21199     0.71742   -0.073276
-0.29368     0.75878   -0.078554
-0.38111       0.786   -0.083832
-0.47185      0.7983   -0.089109
-0.56337     0.79535   -0.094387
-0.65313     0.77724   -0.099664
-0.73863     0.74445    -0.10494
-0.81749     0.69791    -0.11022
-0.88752     0.63892     -0.1155
-0.94677      0.5691    -0.12077
-0.99359     0.49041    -0.12605
-1.0267     0.40503    -0.13133
-1.0451     0.31534    -0.13661
-1.0484     0.22383    -0.14188
-1.0364     0.13304    -0.14716
-1.0095    0.045517    -0.15244
-0.96845   -0.036323    -0.15772
-0.91435     -0.1102    -0.16299
-0.84872    -0.17405    -0.16827
-0.77339    -0.22611    -0.17355
-0.69045    -0.26493    -0.17883
-0.60222    -0.28942     -0.1841
-0.51114    -0.29891    -0.18938
-0.41976    -0.29313    -0.19466
-0.33062    -0.27226    -0.19993
-0.24619    -0.23688    -0.20518
-0.16884    -0.18792     -0.2104
-0.10078    -0.12651    -0.21567
-0.044118     -0.0538    -0.22135
-0.00055382    0.028881     -0.2284
0.029585     0.11805    -0.23793
-0.010866    0.077956    -0.00414
-0.031386     0.15276   -0.010175
-0.063562     0.22826   -0.016436
-0.10758     0.29795   -0.021941
-0.16256      0.3592   -0.027202
-0.22695     0.41033   -0.032446
-0.29894     0.45002    -0.03771
-0.37653     0.47717   -0.042985
-0.45755     0.49105   -0.048263
-0.53976     0.49128   -0.053541
-0.62085     0.47784   -0.058818
-0.69859      0.4511   -0.064096
-0.7708     0.41182   -0.069373
-0.83548     0.36109   -0.074651
-0.89083     0.30031   -0.079928
-0.93531     0.23117   -0.085206
-0.96768     0.15561   -0.090483
-0.98703    0.075714   -0.095761
-0.99284  -0.0062854    -0.10104
-0.98494    -0.08811    -0.10632
-0.96355    -0.16748    -0.11159
-0.92927     -0.2422    -0.11687
-0.88305    -0.31018    -0.12215
-0.82617    -0.36953    -0.12743
-0.76021     -0.4186     -0.1327
-0.68702    -0.45602    -0.13798
-0.60863    -0.48076    -0.14326
-0.52721    -0.49213    -0.14854
-0.44504    -0.48981    -0.15381
-0.3644    -0.47386    -0.15909
-0.28753    -0.44473    -0.16437
-0.21656    -0.40324    -0.16965
-0.15348    -0.35054    -0.17493
-0.10005     -0.2881     -0.1802
-0.057756    -0.21766    -0.18542
-0.027907    -0.14104     -0.1905
-0.011672   -0.060052     -0.1954
-0.009986    0.023639    -0.20075
-0.021892     0.10811    -0.20896
-0.050057    0.068968    0.014712
-0.10972     0.13646    0.014355
-0.17988     0.19564   0.0088647
-0.2586     0.24288   0.0032571
-0.34397     0.27632  -0.0021359
-0.43364     0.29499  -0.0074298
-0.52515     0.29845   -0.012702
-0.61595     0.28664   -0.017975
-0.70352     0.25991    -0.02325
-0.78544     0.21899   -0.028527
-0.85942     0.16502   -0.033805
-0.9234    0.099515   -0.039083
-0.9756    0.024284    -0.04436
-1.0146   -0.058577   -0.049638
-1.0392    -0.14676   -0.054915
-1.0489    -0.23782   -0.060193
-1.0433    -0.32922    -0.06547
-1.0226    -0.41841   -0.070748
-0.9873    -0.50292   -0.076025
-0.93848    -0.58039   -0.081303
-0.87747    -0.64867    -0.08658
-0.80596    -0.70586   -0.091858
-0.72594    -0.75038   -0.097135
-0.63963    -0.78097    -0.10241
-0.54944    -0.79679    -0.10769
-0.45788     -0.7974    -0.11297
-0.36748    -0.78279    -0.11824
-0.28077    -0.75335    -0.12352
-0.20016    -0.70992     -0.1288
-0.12789    -0.65369    -0.13408
-0.065975    -0.58623    -0.13936
-0.016126    -0.50942    -0.14464
0.020267     -0.4254    -0.14991
0.042186    -0.33652    -0.15517
0.04898    -0.24526    -0.16038
0.040319    -0.15413    -0.16549
0.016116   -0.065491    -0.17063
-0.023344    0.018795    -0.17654
-0.076735    0.098472    -0.18588
-0.07908    0.024452   -0.024795
-0.16676     0.04271   -0.035205
-0.25866     0.04879   -0.041474
-0.35014    0.039666   -0.046938
-0.43858    0.015563   -0.052208
-0.52168    -0.02292   -0.057461
-0.59719   -0.074695   -0.062726
-0.66305    -0.13831   -0.067999
-0.71742    -0.21199   -0.073276
-0.75878    -0.29368   -0.078554
-0.786    -0.38111   -0.083832
-0.7983    -0.47185   -0.089109
-0.79535    -0.56337   -0.094387
-0.77724    -0.65313   -0.099664
-0.74445    -0.73863    -0.10494
-0.69791    -0.81749    -0.11022
-0.63892    -0.88752     -0.1155
-0.5691    -0.94677    -0.12077
-0.49041    -0.99359    -0.12605
-0.40503     -1.0267    -0.13133
-0.31534     -1.0451    -0.13661
-0.22383     -1.0484    -0.14188
-0.13304     -1.0364    -0.14716
-0.045517     -1.0095    -0.15244
0.036323    -0.96845    -0.15772
0.1102    -0.91435    -0.16299
0.17405    -0.84872    -0.16827
0.22611    -0.77339    -0.17355
0.26493    -0.69045    -0.17883
0.28942    -0.60222     -0.1841
0.29891    -0.51114    -0.18938
0.29313    -0.41976    -0.19466
0.27226    -0.33062    -0.19993
0.23688    -0.24619    -0.20518
0.18792    -0.16884     -0.2104
0.12651    -0.10078    -0.21567
0.0538   -0.044118    -0.22135
-0.028881 -0.00055382     -0.2284
-0.11805    0.029585    -0.23793
-0.077956   -0.010866    -0.00414
-0.15276   -0.031386   -0.010175
-0.22826   -0.063562   -0.016436
-0.29795    -0.10758   -0.021941
-0.3592    -0.16256   -0.027202
-0.41033    -0.22695   -0.032446
-0.45002    -0.29894    -0.03771
-0.47717    -0.37653   -0.042985
-0.49105    -0.45755   -0.048263
-0.49128    -0.53976   -0.053541
-0.47784    -0.62085   -0.058818
-0.4511    -0.69859   -0.064096
-0.41182     -0.7708   -0.069373
-0.36109    -0.83548   -0.074651
-0.30031    -0.89083   -0.079928
-0.23117    -0.93531   -0.085206
-0.15561    -0.96768   -0.090483
-0.075714    -0.98703   -0.095761
0.0062854    -0.99284    -0.10104
0.08811    -0.98494    -0.10632
0.16748    -0.96355    -0.11159
0.2422    -0.92927    -0.11687
0.31018    -0.88305    -0.12215
0.36953    -0.82617    -0.12743
0.4186    -0.76021     -0.1327
0.45602    -0.68702    -0.13798
0.48076    -0.60863    -0.14326
0.49213    -0.52721    -0.14854
0.48981    -0.44504    -0.15381
0.47386     -0.3644    -0.15909
0.44473    -0.28753    -0.16437
0.40324    -0.21656    -0.16965
0.35054    -0.15348    -0.17493
0.2881    -0.10005     -0.1802
0.21766   -0.057756    -0.18542
0.14104   -0.027907     -0.1905
0.060052   -0.011672     -0.1954
-0.023639   -0.009986    -0.20075
-0.10811   -0.021892    -0.20896
-0.068968   -0.050057    0.014712
-0.13646    -0.10972    0.014355
-0.19564    -0.17988   0.0088647
-0.24288     -0.2586   0.0032571
-0.27632    -0.34397  -0.0021359
-0.29499    -0.43364  -0.0074298
-0.29845    -0.52515   -0.012702
-0.28664    -0.61595   -0.017975
-0.25991    -0.70352    -0.02325
-0.21899    -0.78544   -0.028527
-0.16502    -0.85942   -0.033805
-0.099515     -0.9234   -0.039083
-0.024284     -0.9756    -0.04436
0.058577     -1.0146   -0.049638
0.14676     -1.0392   -0.054915
0.23782     -1.0489   -0.060193
0.32922     -1.0433    -0.06547
0.41841     -1.0226   -0.070748
0.50292     -0.9873   -0.076025
0.58039    -0.93848   -0.081303
0.64867    -0.87747    -0.08658
0.70586    -0.80596   -0.091858
0.75038    -0.72594   -0.097135
0.78097    -0.63963    -0.10241
0.79679    -0.54944    -0.10769
0.7974    -0.45788    -0.11297
0.78279    -0.36748    -0.11824
0.75335    -0.28077    -0.12352
0.70992    -0.20016     -0.1288
0.65369    -0.12789    -0.13408
0.58623   -0.065975    -0.13936
0.50942   -0.016126    -0.14464
0.4254    0.020267    -0.14991
0.33652    0.042186    -0.15517
0.24526     0.04898    -0.16038
0.15413    0.040319    -0.16549
0.065491    0.016116    -0.17063
-0.018795   -0.023344    -0.17654
-0.098472   -0.076735    -0.18588
-0.024452    -0.07908   -0.024795
-0.04271    -0.16676   -0.035205
-0.04879    -0.25866   -0.041474
-0.039666    -0.35014   -0.046938
-0.015563    -0.43858   -0.052208
0.02292    -0.52168   -0.057461
0.074695    -0.59719   -0.062726
0.13831    -0.66305   -0.067999
0.21199    -0.71742   -0.073276
0.29368    -0.75878   -0.078554
0.38111      -0.786   -0.083832
0.47185     -0.7983   -0.089109
0.56337    -0.79535   -0.094387
0.65313    -0.77724   -0.099664
0.73863    -0.74445    -0.10494
0.81749    -0.69791    -0.11022
0.88752    -0.63892     -0.1155
0.94677     -0.5691    -0.12077
0.99359    -0.49041    -0.12605
1.0267    -0.40503    -0.13133
1.0451    -0.31534    -0.13661
1.0484    -0.22383    -0.14188
1.0364    -0.13304    -0.14716
1.0095   -0.045517    -0.15244
0.96845    0.036323    -0.15772
0.91435      0.1102    -0.16299
0.84872     0.17405    -0.16827
0.77339     0.22611    -0.17355
0.69045     0.26493    -0.17883
0.60222     0.28942     -0.1841
0.51114     0.29891    -0.18938
0.41976     0.29313    -0.19466
0.33062     0.27226    -0.19993
0.24619     0.23688    -0.20518
0.16884     0.18792     -0.2104
0.10078     0.12651    -0.21567
0.044118      0.0538    -0.22135
0.00055382   -0.028881     -0.2284
-0.029585    -0.11805    -0.23793
0.010866   -0.077956    -0.00414
0.031386    -0.15276   -0.010175
0.063562    -0.22826   -0.016436
0.10758    -0.29795   -0.021941
0.16256     -0.3592   -0.027202
0.22695    -0.41033   -0.032446
0.29894    -0.45002    -0.03771
0.37653    -0.47717   -0.042985
0.45755    -0.49105   -0.048263
0.53976    -0.49128   -0.053541
0.62085    -0.47784   -0.058818
0.69859     -0.4511   -0.064096
0.7708    -0.41182   -0.069373
0.83548    -0.36109   -0.074651
0.89083    -0.30031   -0.079928
0.93531    -0.23117   -0.085206
0.96768    -0.15561   -0.090483
0.98703   -0.075714   -0.095761
0.99284   0.0062854    -0.10104
0.98494     0.08811    -0.10632
0.96355     0.16748    -0.11159
0.92927      0.2422    -0.11687
0.88305     0.31018    -0.12215
0.82617     0.36953    -0.12743
0.76021      0.4186     -0.1327
0.68702     0.45602    -0.13798
0.60863     0.48076    -0.14326
0.52721     0.49213    -0.14854
0.44504     0.48981    -0.15381
0.3644     0.47386    -0.15909
0.28753     0.44473    -0.16437
0.21656     0.40324    -0.16965
0.15348     0.35054    -0.17493
0.10005      0.2881     -0.1802
0.057756     0.21766    -0.18542
0.027907     0.14104     -0.1905
0.011672    0.060052     -0.1954
0.009986   -0.023639    -0.20075
0.021892    -0.10811    -0.20896
0.050057   -0.068968    0.014712
0.10972    -0.13646    0.014355
0.17988    -0.19564   0.0088647
0.2586    -0.24288   0.0032571
0.34397    -0.27632  -0.0021359
0.43364    -0.29499  -0.0074298