# vtk DataFile Version 3.0
VTK Output
ASCII
DATASET UNSTRUCTURED_GRID

POINTS 9 float
0  0  0
10   0   0
10  10   0
0  10   0
5           0           0
10            5            0
5           10            0
0           5           0
5           5           0

CELLS 4 20
4 0  4  8  7
4 7  8  6  3
4 4  1  5  8
4 8  5  2  6

CELL_TYPES 4
9
9
9
9

POINT_DATA 9
VECTORS displacement double
0  0  0
0  0  0
0  0  0
0  0  0
0  0  0
0  0  0
0  0  0
0  0  0
0  0  0
