# vtk DataFile Version 3.0
VTK Output
ASCII
DATASET UNSTRUCTURED_GRID

POINTS 1025 float
-0.5        -0.5           0
0.5        -0.5           0
0.5         0.5           0
-0.5         0.5           0
-0.5         -0.5           10
0.5         -0.5           10
0.5          0.5           10
-0.5          0.5           10
-0.25        -0.5           0
-1.3751e-12        -0.5           0
0.25        -0.5           0
0.5       -0.25           0
0.5 -1.3751e-12           0
0.5        0.25           0
0.25         0.5           0
1.3751e-12         0.5           0
-0.25         0.5           0
-0.5        0.25           0
-0.5  1.3751e-12           0
-0.5       -0.25           0
-0.25         -0.5           10
-1.37512e-12         -0.5           10
0.25         -0.5           10
0.5        -0.25           10
0.5 -1.37512e-12           10
0.5         0.25           10
0.25          0.5           10
1.37512e-12          0.5           10
-0.25          0.5           10
-0.5         0.25           10
-0.5  1.37512e-12           10
-0.5        -0.25           10
-0.5        -0.5        0.25
-0.5        -0.5         0.5
-0.5        -0.5        0.75
-0.5        -0.5           1
-0.5        -0.5        1.25
-0.5        -0.5         1.5
-0.5        -0.5        1.75
-0.5        -0.5           2
-0.5        -0.5        2.25
-0.5        -0.5         2.5
-0.5        -0.5        2.75
-0.5        -0.5           3
-0.5        -0.5        3.25
-0.5        -0.5         3.5
-0.5        -0.5        3.75
-0.5        -0.5           4
-0.5        -0.5        4.25
-0.5        -0.5         4.5
-0.5        -0.5        4.75
-0.5        -0.5           5
-0.5        -0.5        5.25
-0.5        -0.5         5.5
-0.5        -0.5        5.75
-0.5        -0.5           6
-0.5        -0.5        6.25
-0.5        -0.5         6.5
-0.5        -0.5        6.75
-0.5        -0.5           7
-0.5        -0.5        7.25
-0.5        -0.5         7.5
-0.5        -0.5        7.75
-0.5        -0.5           8
-0.5        -0.5        8.25
-0.5        -0.5         8.5
-0.5        -0.5        8.75
-0.5        -0.5           9
-0.5        -0.5        9.25
-0.5        -0.5         9.5
-0.5        -0.5        9.75
0.5        -0.5        0.25
0.5        -0.5         0.5
0.5        -0.5        0.75
0.5        -0.5           1
0.5        -0.5        1.25
0.5        -0.5         1.5
0.5        -0.5        1.75
0.5        -0.5           2
0.5        -0.5        2.25
0.5        -0.5         2.5
0.5        -0.5        2.75
0.5        -0.5           3
0.5        -0.5        3.25
0.5        -0.5         3.5
0.5        -0.5        3.75
0.5        -0.5           4
0.5        -0.5        4.25
0.5        -0.5         4.5
0.5        -0.5        4.75
0.5        -0.5           5
0.5        -0.5        5.25
0.5        -0.5         5.5
0.5        -0.5        5.75
0.5        -0.5           6
0.5        -0.5        6.25
0.5        -0.5         6.5
0.5        -0.5        6.75
0.5        -0.5           7
0.5        -0.5        7.25
0.5        -0.5         7.5
0.5        -0.5        7.75
0.5        -0.5           8
0.5        -0.5        8.25
0.5        -0.5         8.5
0.5        -0.5        8.75
0.5        -0.5           9
0.5        -0.5        9.25
0.5        -0.5         9.5
0.5        -0.5        9.75
0.5         0.5        0.25
0.5         0.5         0.5
0.5         0.5        0.75
0.5         0.5           1
0.5         0.5        1.25
0.5         0.5         1.5
0.5         0.5        1.75
0.5         0.5           2
0.5         0.5        2.25
0.5         0.5         2.5
0.5         0.5        2.75
0.5         0.5           3
0.5         0.5        3.25
0.5         0.5         3.5
0.5         0.5        3.75
0.5         0.5           4
0.5         0.5        4.25
0.5         0.5         4.5
0.5         0.5        4.75
0.5         0.5           5
0.5         0.5        5.25
0.5         0.5         5.5
0.5         0.5        5.75
0.5         0.5           6
0.5         0.5        6.25
0.5         0.5         6.5
0.5         0.5        6.75
0.5         0.5           7
0.5         0.5        7.25
0.5         0.5         7.5
0.5         0.5        7.75
0.5         0.5           8
0.5         0.5        8.25
0.5         0.5         8.5
0.5         0.5        8.75
0.5         0.5           9
0.5         0.5        9.25
0.5         0.5         9.5
0.5         0.5        9.75
-0.5         0.5        0.25
-0.5         0.5         0.5
-0.5         0.5        0.75
-0.5         0.5           1
-0.5         0.5        1.25
-0.5         0.5         1.5
-0.5         0.5        1.75
-0.5         0.5           2
-0.5         0.5        2.25
-0.5         0.5         2.5
-0.5         0.5        2.75
-0.5         0.5           3
-0.5         0.5        3.25
-0.5         0.5         3.5
-0.5         0.5        3.75
-0.5         0.5           4
-0.5         0.5        4.25
-0.5         0.5         4.5
-0.5         0.5        4.75
-0.5         0.5           5
-0.5         0.5        5.25
-0.5         0.5         5.5
-0.5         0.5        5.75
-0.5         0.5           6
-0.5         0.5        6.25
-0.5         0.5         6.5
-0.5         0.5        6.75
-0.5         0.5           7
-0.5         0.5        7.25
-0.5         0.5         7.5
-0.5         0.5        7.75
-0.5         0.5           8
-0.5         0.5        8.25
-0.5         0.5         8.5
-0.5         0.5        8.75
-0.5         0.5           9
-0.5         0.5        9.25
-0.5         0.5         9.5
-0.5         0.5        9.75
-0.25       -0.25           0
-0.25  6.8756e-13           0
-0.25        0.25           0
-6.8756e-13       -0.25           0
-3.7821e-24           0           0
6.8756e-13        0.25           0
0.25       -0.25           0
0.25 -6.8756e-13           0
0.25        0.25           0
-0.25        -0.5        0.25
-0.25        -0.5         0.5
-0.25        -0.5        0.75
-0.25        -0.5           1
-0.25        -0.5        1.25
-0.25        -0.5         1.5
-0.25        -0.5        1.75
-0.25        -0.5           2
-0.25        -0.5        2.25
-0.25        -0.5         2.5
-0.25        -0.5        2.75
-0.25        -0.5           3
-0.25        -0.5        3.25
-0.25        -0.5         3.5
-0.25        -0.5        3.75
-0.25        -0.5           4
-0.25        -0.5        4.25
-0.25        -0.5         4.5
-0.25        -0.5        4.75
-0.25        -0.5           5
-0.25        -0.5        5.25
-0.25        -0.5         5.5
-0.25        -0.5        5.75
-0.25        -0.5           6
-0.25        -0.5        6.25
-0.25        -0.5         6.5
-0.25        -0.5        6.75
-0.25        -0.5           7
-0.25        -0.5        7.25
-0.25        -0.5         7.5
-0.25        -0.5        7.75
-0.25        -0.5           8
-0.25        -0.5        8.25
-0.25        -0.5         8.5
-0.25        -0.5        8.75
-0.25        -0.5           9
-0.25        -0.5        9.25
-0.25        -0.5         9.5
-0.25        -0.5        9.75
-1.3751e-12        -0.5        0.25
-1.3751e-12        -0.5         0.5
-1.3751e-12        -0.5        0.75
-1.3751e-12        -0.5           1
-1.3751e-12        -0.5        1.25
-1.3751e-12        -0.5         1.5
-1.3751e-12        -0.5        1.75
-1.3751e-12        -0.5           2
-1.3751e-12        -0.5        2.25
-1.3751e-12        -0.5         2.5
-1.3751e-12        -0.5        2.75
-1.3751e-12        -0.5           3
-1.3751e-12        -0.5        3.25
-1.3751e-12        -0.5         3.5
-1.3751e-12        -0.5        3.75
-1.3751e-12        -0.5           4
-1.3751e-12        -0.5        4.25
-1.3751e-12        -0.5         4.5
-1.3751e-12        -0.5        4.75
-1.3751e-12        -0.5           5
-1.3751e-12        -0.5        5.25
-1.3751e-12        -0.5         5.5
-1.3751e-12        -0.5        5.75
-1.3751e-12        -0.5           6
-1.3751e-12        -0.5        6.25
-1.3751e-12        -0.5         6.5
-1.3751e-12        -0.5        6.75
-1.3751e-12        -0.5           7
-1.3751e-12        -0.5        7.25
-1.3751e-12        -0.5         7.5
-1.3751e-12        -0.5        7.75
-1.3751e-12        -0.5           8
-1.3751e-12        -0.5        8.25
-1.3751e-12        -0.5         8.5
-1.3751e-12        -0.5        8.75
-1.3751e-12        -0.5           9
-1.3751e-12        -0.5        9.25
-1.3751e-12        -0.5         9.5
-1.3751e-12        -0.5        9.75
0.25        -0.5        0.25
0.25        -0.5         0.5
0.25        -0.5        0.75
0.25        -0.5           1
0.25        -0.5        1.25
0.25        -0.5         1.5
0.25        -0.5        1.75
0.25        -0.5           2
0.25        -0.5        2.25
0.25        -0.5         2.5
0.25        -0.5        2.75
0.25        -0.5           3
0.25        -0.5        3.25
0.25        -0.5         3.5
0.25        -0.5        3.75
0.25        -0.5           4
0.25        -0.5        4.25
0.25        -0.5         4.5
0.25        -0.5        4.75
0.25        -0.5           5
0.25        -0.5        5.25
0.25        -0.5         5.5
0.25        -0.5        5.75
0.25        -0.5           6
0.25        -0.5        6.25
0.25        -0.5         6.5
0.25        -0.5        6.75
0.25        -0.5           7
0.25        -0.5        7.25
0.25        -0.5         7.5
0.25        -0.5        7.75
0.25        -0.5           8
0.25        -0.5        8.25
0.25        -0.5         8.5
0.25        -0.5        8.75
0.25        -0.5           9
0.25        -0.5        9.25
0.25        -0.5         9.5
0.25        -0.5        9.75
0.5       -0.25        0.25
0.5       -0.25         0.5
0.5       -0.25        0.75
0.5       -0.25           1
0.5       -0.25        1.25
0.5       -0.25         1.5
0.5       -0.25        1.75
0.5       -0.25           2
0.5       -0.25        2.25
0.5       -0.25         2.5
0.5       -0.25        2.75
0.5       -0.25           3
0.5       -0.25        3.25
0.5       -0.25         3.5
0.5       -0.25        3.75
0.5       -0.25           4
0.5       -0.25        4.25
[...]
POINT_DATA 1025
VECTORS displacement double
0  0  0
0  0  0
0  0  0
0  0  0
-0.087938     0.89285    -0.13006
-0.89285   -0.087938    -0.13006
0.087938    -0.89285    -0.13006
0.89285    0.087938    -0.13006
0  0  0
0  0  0
0  0  0
0  0  0
0  0  0
0  0  0
0  0  0
0  0  0
0  0  0
0  0  0
0  0  0
0  0  0
-0.28917     0.64765    -0.14319
-0.49039     0.40245    -0.12218
-0.69162     0.15726    -0.10504
-0.64765    -0.28917    -0.14319
-0.40245    -0.49039    -0.12218
-0.15726    -0.69162    -0.10504
0.28917    -0.64765    -0.14319
0.49039    -0.40245    -0.12218
0.69162    -0.15726    -0.10504
0.64765     0.28917    -0.14319
0.40245     0.49039    -0.12218
0.15726     0.69162    -0.10504
0.059621   -0.045852  -0.0011523
0.13209   -0.096291  -0.0054705
0.20881     -0.1369  -0.0089171
0.28926    -0.16782   -0.012037
0.37274    -0.18865   -0.015013
0.45811    -0.19908   -0.017927
0.5441    -0.19895    -0.02083
0.62943    -0.18828   -0.023735
0.71281    -0.16723   -0.026643
0.79298    -0.13612   -0.029552
0.86873   -0.095414   -0.032461
0.93892   -0.045734    -0.03537
1.0025    0.012173    -0.03828
1.0585    0.077435   -0.041189
1.1061     0.14907   -0.044098
1.1445     0.22599   -0.047007
1.1732     0.30705   -0.049916
1.1918     0.39101   -0.052826
1.2     0.47662   -0.055735
1.1975     0.56258   -0.058644
1.1846      0.6476   -0.061553
1.1614     0.73039   -0.064463
1.1281     0.80971   -0.067372
1.0854     0.88436   -0.070281
1.0339     0.95321    -0.07319
0.97436      1.0152     -0.0761
0.90764      1.0695   -0.079009
0.83477      1.1151   -0.081918
0.75685      1.1515   -0.084827
0.67507      1.1781   -0.087737
0.59064      1.1945   -0.090647
0.50485      1.2003   -0.093556
0.41899      1.1956   -0.096458
0.33435      1.1805   -0.099342
0.25222       1.155    -0.10219
0.17383      1.1196    -0.10506
0.10028      1.0745    -0.10823
0.032364      1.0203    -0.11261
-0.029857     0.95854    -0.11952
0.045852    0.059621  -0.0011523
0.096291     0.13209  -0.0054705
0.1369     0.20881  -0.0089171
0.16782     0.28926   -0.012037
0.18865     0.37274   -0.015013
0.19908     0.45811   -0.017927
0.19895      0.5441    -0.02083
0.18828     0.62943   -0.023735
0.16723     0.71281   -0.026643
0.13612     0.79298   -0.029552
0.095414     0.86873   -0.032461
0.045734     0.93892    -0.03537
-0.012173      1.0025    -0.03828
-0.077435      1.0585   -0.041189
-0.14907      1.1061   -0.044098
-0.22599      1.1445   -0.047007
-0.30705      1.1732   -0.049916
-0.39101      1.1918   -0.052826
-0.47662         1.2   -0.055735
-0.56258      1.1975   -0.058644
-0.6476      1.1846   -0.061553
-0.73039      1.1614   -0.064463
-0.80971      1.1281   -0.067372
-0.88436      1.0854   -0.070281
-0.95321      1.0339    -0.07319
-1.0152     0.97436     -0.0761
-1.0695     0.90764   -0.079009
-1.1151     0.83477   -0.081918
-1.1515     0.75685   -0.084827
-1.1781     0.67507   -0.087737
-1.1945     0.59064   -0.090647
-1.2003     0.50485   -0.093556
-1.1956     0.41899   -0.096458
-1.1805     0.33435   -0.099342
-1.155     0.25222    -0.10219
-1.1196     0.17383    -0.10506
-1.0745     0.10028    -0.10823
-1.0203    0.032364    -0.11261
-0.95854   -0.029857    -0.11952
-0.059621    0.045852  -0.0011523
-0.13209    0.096291  -0.0054705
-0.20881      0.1369  -0.0089171
-0.28926     0.16782   -0.012037
-0.37274     0.18865   -0.015013
-0.45811     0.19908   -0.017927
-0.5441     0.19895    -0.02083
-0.62943     0.18828   -0.023735
-0.71281     0.16723   -0.026643
-0.79298     0.13612   -0.029552
-0.86873    0.095414   -0.032461
-0.93892    0.045734    -0.03537
-1.0025   -0.012173    -0.03828
-1.0585   -0.077435   -0.041189
-1.1061    -0.14907   -0.044098
-1.1445    -0.22599   -0.047007
-1.1732    -0.30705   -0.049916
-1.1918    -0.39101   -0.052826
-1.2    -0.47662   -0.055735
-1.1975    -0.56258   -0.058644
-1.1846     -0.6476   -0.061553
-1.1614    -0.73039   -0.064463
-1.1281    -0.80971   -0.067372
-1.0854    -0.88436   -0.070281
-1.0339    -0.95321    -0.07319
-0.97436     -1.0152     -0.0761
-0.90764     -1.0695   -0.079009
-0.83477     -1.1151   -0.081918
-0.75685     -1.1515   -0.084827
-0.67507     -1.1781   -0.087737
-0.59064     -1.1945   -0.090647
-0.50485     -1.2003   -0.093556
-0.41899     -1.1956   -0.096458
-0.33435     -1.1805   -0.099342
-0.25222      -1.155    -0.10219
-0.17383     -1.1196    -0.10506
-0.10028     -1.0745    -0.10823
-0.032364     -1.0203    -0.11261
0.029857    -0.95854    -0.11952
-0.045852   -0.059621  -0.0011523
-0.096291    -0.13209  -0.0054705
-0.1369    -0.20881  -0.0089171
-0.16782    -0.28926   -0.012037
-0.18865    -0.37274   -0.015013
-0.19908    -0.45811   -0.017927
-0.19895     -0.5441    -0.02083
-0.18828    -0.62943   -0.023735
-0.16723    -0.71281   -0.026643
-0.13612    -0.79298   -0.029552
-0.095414    -0.86873   -0.032461
-0.045734    -0.93892    -0.03537
0.012173     -1.0025    -0.03828
0.077435     -1.0585   -0.041189
0.14907     -1.1061   -0.044098
0.22599     -1.1445   -0.047007
0.30705     -1.1732   -0.049916
0.39101     -1.1918   -0.052826
0.47662        -1.2   -0.055735
0.56258     -1.1975   -0.058644
0.6476     -1.1846   -0.061553
0.73039     -1.1614   -0.064463
0.80971     -1.1281   -0.067372
0.88436     -1.0854   -0.070281
0.95321     -1.0339    -0.07319
1.0152    -0.97436     -0.0761
1.0695    -0.90764   -0.079009
1.1151    -0.83477   -0.081918
1.1515    -0.75685   -0.084827
1.1781    -0.67507   -0.087737
1.1945    -0.59064   -0.090647
1.2003    -0.50485   -0.093556
1.1956    -0.41899   -0.096458
1.1805    -0.33435   -0.099342
1.155    -0.25222    -0.10219
1.1196    -0.17383    -0.10506
1.0745    -0.10028    -0.10823
1.0203   -0.032364    -0.11261
0.95854    0.029857    -0.11952
0  0  0
0  0  0
0  0  0
0  0  0
0  0  0
0  0  0
0  0  0
0  0  0
0  0  0
0.058636   -0.020857   -0.017557
0.12282   -0.038784   -0.024146
0.1901   -0.050302   -0.027549
0.25816   -0.053496   -0.030525
0.32598   -0.048359   -0.033429
0.39262   -0.034931    -0.03633
0.4571   -0.013426   -0.039235
0.51847    0.015826   -0.042142
0.57578    0.052378   -0.045051
0.62818     0.09568    -0.04796
0.67489     0.14508    -0.05087
0.71518     0.19983   -0.053779
0.74846      0.2591   -0.056688
0.77423     0.32201   -0.059597
0.79209      0.3876   -0.062507
0.80178     0.45488   -0.065416
0.80315     0.52285   -0.068325
0.79618     0.59047   -0.071234
0.78098     0.65672   -0.074144
0.75777     0.72062   -0.077053
0.7269     0.78118   -0.079962
0.68884     0.83751   -0.082871
0.64417     0.88875    -0.08578
0.59355     0.93413    -0.08869
0.53776     0.97296   -0.091599
0.47762      1.0047   -0.094508
0.41406      1.0288   -0.097417
0.34802      1.0449    -0.10033
0.2805      1.0528    -0.10324
0.21252      1.0524    -0.10615
0.14511      1.0436    -0.10905
0.079281      1.0266    -0.11196
0.016026      1.0018    -0.11487
-0.043699     0.96931    -0.11777
-0.098986     0.92977    -0.12066
-0.14898     0.88362    -0.12356
-0.19284     0.83134    -0.12663
-0.22994     0.77345    -0.13032
-0.26017     0.71152     -0.1353
0.058825    0.006101  -0.0024175
0.11512     0.01742  -0.0057091
0.17314    0.035259  -0.0091139
0.22893    0.059951   -0.012127
0.2812    0.091305   -0.015026
0.32919     0.12884   -0.017921
0.3722     0.17198   -0.020825
0.4096     0.22007   -0.023733
0.44082     0.27238   -0.026642
0.46539     0.32812   -0.029552
0.48295     0.38645   -0.032461
0.49322      0.4465    -0.03537
0.49606     0.50735    -0.03828
0.49142     0.56809   -0.041189
0.47937      0.6278   -0.044098
0.46009     0.68559   -0.047007
0.43388     0.74058   -0.049916
0.40112     0.79194   -0.052826
0.36232      0.8389   -0.055735
0.31805     0.88075   -0.058644
0.26899     0.91686   -0.061553
0.21588     0.94668   -0.064463
0.1595     0.96977   -0.067372
0.10073     0.98578   -0.070281
0.040431     0.99446    -0.07319
-0.020474     0.99569     -0.0761
-0.08107     0.98945   -0.079009
-0.14044     0.97582   -0.081918
-0.1977     0.95502   -0.084827
-0.25198     0.92736   -0.087737
-0.30245     0.89326   -0.090646
-0.34837     0.85323   -0.093557
-0.38904     0.80787   -0.096467
-0.42384     0.75788   -0.099374
-0.45223       0.704    -0.10226
-0.47374     0.64699    -0.10509
-0.48789     0.58757    -0.10783
-0.4943     0.52642    -0.11073
-0.49355     0.46432    -0.11498
0.05304     0.03513    0.011829
0.10616    0.075942    0.012477
0.1553     0.12306   0.0094488
0.19854     0.17563   0.0063662
0.23499     0.23307   0.0034041
0.26407     0.29452  0.00048886
0.28539     0.35908  -0.0024181
0.29862     0.42575  -0.0053255
0.30359     0.49355  -0.0082341
0.3002     0.56144   -0.011143
0.28852     0.62841   -0.014052
0.26873     0.69344   -0.016962
0.24111     0.75556   -0.019871
0.20608     0.81382    -0.02278
0.16418     0.86735   -0.025689
0.11604     0.91535   -0.028599
0.062377     0.95708   -0.031508
0.0040044     0.99191   -0.034417
-0.058198      1.0193   -0.037326
-0.12329      1.0389   -0.040236
-0.1903      1.0504   -0.043145
-0.2582      1.0536   -0.046054
-0.32598      1.0484   -0.048963
-0.39262      1.0349   -0.051872
-0.4571      1.0134   -0.054782
-0.51847     0.98417   -0.057691
-0.57578     0.94762     -0.0606
-0.62819     0.90432   -0.063509
-0.67489     0.85492   -0.066419
-0.71518     0.80017   -0.069328
-0.74846      0.7409   -0.072238
-0.77423     0.67799   -0.075147
-0.7921     0.61241   -0.078056
-0.80179     0.54513   -0.080956
-0.80314     0.47718   -0.083836
-0.79606     0.40958   -0.086683
-0.78053      0.3433   -0.089562
-0.75669      0.2791   -0.092819
-0.72526     0.21689   -0.097677
0.020857    0.058636   -0.017557
0.038784     0.12282   -0.024146
0.050302      0.1901   -0.027549
0.053496     0.25816   -0.030525
0.048359     0.32598   -0.033429
0.034931     0.39262    -0.03633
0.013426      0.4571   -0.039235
-0.015826     0.51847   -0.042142
-0.052378     0.57578   -0.045051
-0.09568     0.62818    -0.04796
-0.14508     0.67489    -0.05087
-0.19983     0.71518   -0.053779
-0.2591     0.74846   -0.056688
-0.32201     0.77423   -0.059597
-0.3876     0.79209   -0.062507
-0.45488     0.80178   -0.065416
-0.52285     0.80315   -0.068325
-0.59047     0.79618   -0.071234
-0.65672     0.78098   -0.074144
-0.72062     0.75777   -0.077053
-0.78118      0.7269   -0.079962
-0.83751     0.68884   -0.082871
-0.88875     0.64417    -0.08578
-0.93413     0.59355    -0.08869
-0.97296     0.53776   -0.091599
-1.0047     0.47762   -0.094508
-1.0288     0.41406   -0.097417
-1.0449     0.34802    -0.10033
-1.0528      0.2805    -0.10324
-1.0524     0.21252    -0.10615
-1.0436     0.14511    -0.10905
-1.0266    0.079281    -0.11196
-1.0018    0.016026    -0.11487
-0.96931   -0.043699    -0.11777
-0.92977   -0.098986    -0.12066
-0.88362    -0.14898    -0.12356
-0.83134    -0.19284    -0.12663
-0.77345    -0.22994    -0.13032
-0.71152    -0.26017     -0.1353
-0.006101    0.058825  -0.0024175
-0.01742     0.11512  -0.0057091
-0.035259     0.17314  -0.0091139
-0.059951     0.22893   -0.012127
-0.091305      0.2812   -0.015026
-0.12884     0.32919   -0.017921
-0.17198      0.3722   -0.020825
-0.22007      0.4096   -0.023733
-0.27238     0.44082   -0.026642
-0.32812     0.46539   -0.029552
-0.38645     0.48295   -0.032461
-0.4465     0.49322    -0.03537
-0.50735     0.49606    -0.03828
-0.56809     0.49142   -0.041189
-0.6278     0.47937   -0.044098
-0.68559     0.46009   -0.047007
-0.74058     0.43388   -0.049916
-0.79194     0.40112   -0.052826
-0.8389     0.36232   -0.055735
-0.88075     0.31805   -0.058644
-0.91686     0.26899   -0.061553
-0.94668     0.21588   -0.064463
-0.96977      0.1595   -0.067372
-0.98578     0.10073   -0.070281
-0.99446    0.040431    -0.07319
-0.99569   -0.020474     -0.0761
-0.98945    -0.08107   -0.079009
-0.97582    -0.14044   -0.081918
-0.95502     -0.1977   -0.084827
-0.92736    -0.25198   -0.087737
-0.89326    -0.30245   -0.090646
-0.85323    -0.34837   -0.093557
-0.80787    -0.38904   -0.096467
-0.75788    -0.42384   -0.099374
-0.704    -0.45223    -0.10226
-0.64699    -0.47374    -0.10509
-0.58757    -0.48789    -0.10783
-0.52642     -0.4943    -0.11073
-0.46432    -0.49355    -0.11498
-0.03513     0.05304    0.011829
-0.075942     0.10616    0.012477
-0.12306      0.1553   0.0094488
-0.17563     0.19854   0.0063662
-0.23307     0.23499   0.0034041
-0.29452     0.26407  0.00048886
-0.35908     0.28539  -0.0024181
-0.42575     0.29862  -0.0053255
-0.49355     0.30359  -0.0082341
-0.56144      0.3002   -0.011143
-0.62841     0.28852   -0.014052
-0.69344     0.26873   -0.016962
-0.75556     0.24111   -0.019871
-0.81382     0.20608    -0.02278
-0.86735     0.16418   -0.025689
-0.91535     0.11604   -0.028599
-0.95708    0.062377   -0.031508
-0.99191   0.0040044   -0.034417
-1.0193   -0.058198   -0.037326
-1.0389    -0.12329   -0.040236
-1.0504     -0.1903   -0.043145
-1.0536     -0.2582   -0.046054
-1.0484    -0.32598   -0.048963
-1.0349    -0.39262   -0.051872
-1.0134     -0.4571   -0.054782
-0.98417    -0.51847   -0.057691
-0.94762    -0.57578     -0.0606
-0.90432    -0.62819   -0.063509
-0.85492    -0.67489   -0.066419
-0.80017    -0.71518   -0.069328
-0.7409    -0.74846   -0.072238
-0.67799    -0.77423   -0.075147
-0.61241     -0.7921   -0.078056
-0.54513    -0.80179   -0.080956
-0.47718    -0.80314   -0.083836
-0.40958    -0.79606   -0.086683
-0.3433    -0.78053   -0.089562
-0.2791    -0.75669   -0.092819
-0.21689    -0.72526   -0.097677
-0.058636    0.020857   -0.017557
-0.12282    0.038784   -0.024146
-0.1901    0.050302   -0.027549
-0.25816    0.053496   -0.030525
-0.32598    0.048359   -0.033429
-0.39262    0.034931    -0.03633
-0.4571    0.013426   -0.039235
-0.51847   -0.015826   -0.042142
-0.57578   -0.052378   -0.045051
-0.62818    -0.09568    -0.04796
-0.67489    -0.14508    -0.05087
-0.71518    -0.19983   -0.053779
-0.74846     -0.2591   -0.056688
-0.77423    -0.32201   -0.059597
-0.79209     -0.3876   -0.062507
-0.80178    -0.45488   -0.065416
-0.80315    -0.52285   -0.068325
-0.79618    -0.59047   -0.071234
-0.78098    -0.65672   -0.074144
-0.75777    -0.72062   -0.077053
-0.7269    -0.78118   -0.079962
-0.68884    -0.83751   -0.082871
-0.64417    -0.88875    -0.08578
-0.59355    -0.93413    -0.08869
-0.53776    -0.97296   -0.091599
-0.47762     -1.0047   -0.094508
-0.41406     -1.0288   -0.097417
-0.34802     -1.0449    -0.10033
-0.2805     -1.0528    -0.10324
-0.21252     -1.0524    -0.10615
-0.14511     -1.0436    -0.10905
-0.079281     -1.0266    -0.11196
-0.016026     -1.0018    -0.11487
0.043699    -0.96931    -0.11777
0.098986    -0.92977    -0.12066
0.14898    -0.88362    -0.12356
0.19284    -0.83134    -0.12663
0.22994    -0.77345    -0.13032
0.26017    -0.71152     -0.1353
-0.058825   -0.006101  -0.0024175
-0.11512    -0.01742  -0.0057091
-0.17314   -0.035259  -0.0091139
-0.22893   -0.059951   -0.012127
-0.2812   -0.091305   -0.015026
-0.32919    -0.12884   -0.017921
-0.3722    -0.17198   -0.020825
-0.4096    -0.22007   -0.023733
-0.44082    -0.27238   -0.026642
-0.46539    -0.32812   -0.029552
-0.48295    -0.38645   -0.032461
-0.49322     -0.4465    -0.03537
-0.49606    -0.50735    -0.03828
-0.49142    -0.56809   -0.041189
-0.47937     -0.6278   -0.044098
-0.46009    -0.68559   -0.047007
-0.43388    -0.74058   -0.049916
-0.40112    -0.79194   -0.052826
-0.36232     -0.8389   -0.055735
-0.31805    -0.88075   -0.058644
-0.26899    -0.91686   -0.061553
-0.21588    -0.94668   -0.064463
-0.1595    -0.96977   -0.067372
-0.10073    -0.98578   -0.070281
-0.040431    -0.99446    -0.07319
0.020474    -0.99569     -0.0761
0.08107    -0.98945   -0.079009
0.14044    -0.97582   -0.081918
0.1977    -0.95502   -0.084827
0.25198    -0.92736   -0.087737
0.30245    -0.89326   -0.090646
0.34837    -0.85323   -0.093557
0.38904    -0.80787   -0.096467
0.42384    -0.75788   -0.099374
0.45223      -0.704    -0.10226
0.47374    -0.64699    -0.10509
0.48789    -0.58757    -0.10783
0.4943    -0.52642    -0.11073
0.49355    -0.46432    -0.11498
-0.05304    -0.03513    0.011829
-0.10616   -0.075942    0.012477
-0.1553    -0.12306   0.0094488
-0.19854    -0.17563   0.0063662
-0.23499    -0.23307   0.0034041
-0.26407    -0.29452  0.00048886
-0.28539    -0.35908  -0.0024181
-0.29862    -0.42575  -0.0053255
-0.30359    -0.49355  -0.0082341
-0.3002    -0.56144   -0.011143
-0.28852    -0.62841   -0.014052
-0.26873    -0.69344   -0.016962
-0.24111    -0.75556   -0.019871
-0.20608    -0.81382    -0.02278
-0.16418    -0.86735   -0.025689
-0.11604    -0.91535   -0.028599
-0.062377    -0.95708   -0.031508
-0.0040044    -0.99191   -0.034417
0.058198     -1.0193   -0.037326
0.12329     -1.0389   -0.040236
0.1903     -1.0504   -0.043145
0.2582     -1.0536   -0.046054
0.32598     -1.0484   -0.048963
0.39262     -1.0349   -0.051872
0.4571     -1.0134   -0.054782
0.51847    -0.98417   -0.057691
0.57578    -0.94762     -0.0606
0.62819    -0.90432   -0.063509
0.67489    -0.85492   -0.066419
0.71518    -0.80017   -0.069328
0.74846     -0.7409   -0.072238
0.77423    -0.67799   -0.075147
0.7921    -0.61241   -0.078056
0.80179    -0.54513   -0.080956
0.80314    -0.47718   -0.083836
0.79606    -0.40958   -0.086683
0.78053     -0.3433   -0.089562
0.75669     -0.2791   -0.092819
0.72526    -0.21689   -0.097677
-0.020857   -0.058636   -0.017557
-0.038784    -0.12282   -0.024146
-0.050302     -0.1901   -0.027549
-0.053496    -0.25816   -0.030525
-0.048359    -0.32598   -0.033429
-0.034931    -0.39262    -0.03633
-0.013426     -0.4571   -0.039235
0.015826    -0.51847   -0.042142
0.052378    -0.57578   -0.045051
0.09568    -0.62818    -0.04796
0.14508    -0.67489    -0.05087
0.19983    -0.71518   -0.053779
0.2591    -0.74846   -0.056688
0.32201    -0.77423   -0.059597
0.3876    -0.79209   -0.062507
0.45488    -0.80178   -0.065416
0.52285    -0.80315   -0.068325
0.59047    -0.79618   -0.071234
0.65672    -0.78098   -0.074144
0.72062    -0.75777   -0.077053
0.78118     -0.7269   -0.079962
0.83751    -0.68884   -0.082871
0.88875    -0.64417    -0.08578
0.93413    -0.59355    -0.08869
0.97296    -0.53776   -0.091599
1.0047    -0.47762   -0.094508
1.0288    -0.41406   -0.097417
1.0449    -0.34802    -0.10033
1.0528     -0.2805    -0.10324
1.0524    -0.21252    -0.10615
1.0436    -0.14511    -0.10905
1.0266   -0.079281    -0.11196
1.0018   -0.016026    -0.11487
0.96931    0.043699    -0.11777
0.92977    0.098986    -0.12066
0.88362     0.14898    -0.12356
0.83134     0.19284    -0.12663
0.77345     0.22994    -0.13032
0.71152     0.26017     -0.1353
0.006101   -0.058825  -0.0024175
0.01742    -0.11512  -0.0057091
0.035259    -0.17314  -0.0091139
0.059951    -0.22893   -0.012127
0.091305     -0.2812   -0.015026
0.12884    -0.32919   -0.017921
0.17198     -0.3722   -0.020825
0.22007     -0.4096   -0.023733
0.27238    -0.44082   -0.026642
0.32812    -0.46539   -0.029552
0.38645    -0.48295   -0.032461
0.4465    -0.49322    -0.03537
0.50735    -0.49606    -0.03828
0.56809    -0.49142   -0.041189
0.6278    -0.47937   -0.044098
0.68559    -0.46009   -0.047007
0.74058    -0.43388   -0.049916
0.79194    -0.40112   -0.052826
0.8389    -0.36232   -0.055735
0.88075    -0.31805   -0.058644
0.91686    -0.26899   -0.061553
0.94668    -0.21588   -0.064463
0.96977     -0.1595   -0.067372
0.98578    -0.10073   -0.070281
0.99446   -0.040431    -0.07319
0.99569    0.020474     -0.0761
0.98945     0.08107   -0.079009
0.97582     0.14044   -0.081918
0.95502      0.1977   -0.084827
0.92736     0.25198   -0.087737
0.89326     0.30245   -0.090646
0.85323     0.34837   -0.093557
0.80787     0.38904   -0.096467
0.75788     0.42384   -0.099374
0.704     0.45223    -0.10226
0.64699     0.47374    -0.10509
0.58757     0.48789    -0.10783
0.52642      0.4943    -0.11073
0.46432     0.49355    -0.11498
0.03513    -0.05304    0.011829
0.075942    -0.10616    0.012477
0.12306     -0.1553   0.0094488
0.17563    -0.19854   0.0063662
0.23307    -0.23499   0.0034041
0.29452    -0.26407  0.00048886
0.35908    -0.28539  -0.0024181
0.42575    -0.29862  -0.0053255