# vtk DataFile Version 3.0
VTK Output
ASCII
DATASET UNSTRUCTURED_GRID

POINTS 1025 float
-0.5        -0.5           0
0.5        -0.5           0
0.5         0.5           0
-0.5         0.5           0
-0.5         -0.5           10
0.5         -0.5           10
0.5          0.5           10
-0.5          0.5           10
-0.25        -0.5           0
-1.3751e-12        -0.5           0
0.25        -0.5           0
0.5       -0.25           0
0.5 -1.3751e-12           0
0.5        0.25           0
0.25         0.5           0
1.3751e-12         0.5           0
-0.25         0.5           0
-0.5        0.25           0
-0.5  1.3751e-12           0
-0.5       -0.25           0
-0.25         -0.5           10
-1.37512e-12         -0.5           10
0.25         -0.5           10
0.5        -0.25           10
0.5 -1.37512e-12           10
0.5         0.25           10
0.25          0.5           10
1.37512e-12          0.5           10
-0.25          0.5           10
-0.5         0.25           10
-0.5  1.37512e-12           10
-0.5        -0.25           10
-0.5        -0.5        0.25
-0.5        -0.5         0.5
-0.5        -0.5        0.75
-0.5        -0.5           1
-0.5        -0.5        1.25
-0.5        -0.5         1.5
-0.5        -0.5        1.75
-0.5        -0.5           2
-0.5        -0.5        2.25
-0.5        -0.5         2.5
-0.5        -0.5        2.75
-0.5        -0.5           3
-0.5        -0.5        3.25
-0.5        -0.5         3.5
-0.5        -0.5        3.75
-0.5        -0.5           4
-0.5        -0.5        4.25
-0.5        -0.5         4.5
-0.5        -0.5        4.75
-0.5        -0.5           5
-0.5        -0.5        5.25
-0.5        -0.5         5.5
-0.5        -0.5        5.75
-0.5        -0.5           6
-0.5        -0.5        6.25
-0.5        -0.5         6.5
-0.5        -0.5        6.75
-0.5        -0.5           7
-0.5        -0.5        7.25
-0.5        -0.5         7.5
-0.5        -0.5        7.75
-0.5        -0.5           8
-0.5        -0.5        8.25
-0.5        -0.5         8.5
-0.5        -0.5        8.75
-0.5        -0.5           9
-0.5        -0.5        9.25
-0.5        -0.5         9.5
-0.5        -0.5        9.75
0.5        -0.5        0.25
0.5        -0.5         0.5
0.5        -0.5        0.75
0.5        -0.5           1
0.5        -0.5        1.25
0.5        -0.5         1.5
0.5        -0.5        1.75
0.5        -0.5           2
0.5        -0.5        2.25
0.5        -0.5         2.5
0.5        -0.5        2.75
0.5        -0.5           3
0.5        -0.5        3.25
0.5        -0.5         3.5
0.5        -0.5        3.75
0.5        -0.5           4
0.5        -0.5        4.25
0.5        -0.5         4.5
0.5        -0.5        4.75
0.5        -0.5           5
0.5        -0.5        5.25
0.5        -0.5         5.5
0.5        -0.5        5.75
0.5        -0.5           6
0.5        -0.5        6.25
0.5        -0.5         6.5
0.5        -0.5        6.75
0.5        -0.5           7
0.5        -0.5        7.25
0.5        -0.5         7.5
0.5        -0.5        7.75
0.5        -0.5           8
0.5        -0.5        8.25
0.5        -0.5         8.5
0.5        -0.5        8.75
0.5        -0.5           9
0.5        -0.5        9.25
0.5        -0.5         9.5
0.5        -0.5        9.75
0.5         0.5        0.25
0.5         0.5         0.5
0.5         0.5        0.75
0.5         0.5           1
0.5         0.5        1.25
0.5         0.5         1.5
0.5         0.5        1.75
0.5         0.5           2
0.5         0.5        2.25
0.5         0.5         2.5
0.5         0.5        2.75
0.5         0.5           3
0.5         0.5        3.25
0.5         0.5         3.5
0.5         0.5        3.75
0.5         0.5           4
0.5         0.5        4.25
0.5         0.5         4.5
0.5         0.5        4.75
0.5         0.5           5
0.5         0.5        5.25
0.5         0.5         5.5
0.5         0.5        5.75
0.5         0.5           6
0.5         0.5        6.25
0.5         0.5         6.5
0.5         0.5        6.75
0.5         0.5           7
0.5         0.5        7.25
0.5         0.5         7.5
0.5         0.5        7.75
0.5         0.5           8
0.5         0.5        8.25
0.5         0.5         8.5
0.5         0.5        8.75
0.5         0.5           9
0.5         0.5        9.25
0.5         0.5         9.5
0.5         0.5        9.75
-0.5         0.5        0.25
-0.5         0.5         0.5
-0.5         0.5        0.75
-0.5         0.5           1
-0.5         0.5        1.25
-0.5         0.5         1.5
-0.5         0.5        1.75
-0.5         0.5           2
-0.5         0.5        2.25
-0.5         0.5         2.5
-0.5         0.5        2.75
-0.5         0.5           3
-0.5         0.5        3.25
-0.5         0.5         3.5
-0.5         0.5        3.75
-0.5         0.5           4
-0.5         0.5        4.25
-0.5         0.5         4.5
-0.5         0.5        4.75
-0.5         0.5           5
-0.5         0.5        5.25
-0.5         0.5         5.5
-0.5         0.5        5.75
-0.5         0.5           6
-0.5         0.5        6.25
-0.5         0.5         6.5
-0.5         0.5        6.75
-0.5         0.5           7
-0.5         0.5        7.25
-0.5         0.5         7.5
-0.5         0.5        7.75
-0.5         0.5           8
-0.5         0.5        8.25
-0.5         0.5         8.5
-0.5         0.5        8.75
-0.5         0.5           9
-0.5         0.5        9.25
-0.5         0.5         9.5
-0.5         0.5        9.75
-0.25       -0.25           0
-0.25  6.8756e-13           0
-0.25        0.25           0
-6.8756e-13       -0.25           0
-3.7821e-24           0           0
6.8756e-13        0.25           0
0.25       -0.25           0
0.25 -6.8756e-13           0
0.25        0.25           0
-0.25        -0.5        0.25
-0.25        -0.5         0.5
-0.25        -0.5        0.75
-0.25        -0.5           1
-0.25        -0.5        1.25
-0.25        -0.5         1.5
-0.25        -0.5        1.75
-0.25        -0.5           2
-0.25        -0.5        2.25
-0.25        -0.5         2.5
-0.25        -0.5        2.75
-0.25        -0.5           3
-0.25        -0.5        3.25
-0.25        -0.5         3.5
-0.25        -0.5        3.75
-0.25        -0.5           4
-0.25        -0.5        4.25
-0.25        -0.5         4.5
-0.25        -0.5        4.75
-0.25        -0.5           5
-0.25        -0.5        5.25
-0.25        -0.5         5.5
-0.25        -0.5        5.75
-0.25        -0.5           6
-0.25        -0.5        6.25
-0.25        -0.5         6.5
-0.25        -0.5        6.75
-0.25        -0.5           7
-0.25        -0.5        7.25
-0.25        -0.5         7.5
-0.25        -0.5        7.75
-0.25        -0.5           8
-0.25        -0.5        8.25
-0.25        -0.5         8.5
-0.25        -0.5        8.75
-0.25        -0.5           9
-0.25        -0.5        9.25
-0.25        -0.5         9.5
-0.25        -0.5        9.75
-1.3751e-12        -0.5        0.25
-1.3751e-12        -0.5         0.5
-1.3751e-12        -0.5        0.75
-1.3751e-12        -0.5           1
-1.3751e-12        -0.5        1.25
-1.3751e-12        -0.5         1.5
-1.3751e-12        -0.5        1.75
-1.3751e-12        -0.5           2
-1.3751e-12        -0.5        2.25
-1.3751e-12        -0.5         2.5
-1.3751e-12        -0.5        2.75
-1.3751e-12        -0.5           3
-1.3751e-12        -0.5        3.25
-1.3751e-12        -0.5         3.5
-1.3751e-12        -0.5        3.75
-1.3751e-12        -0.5           4
-1.3751e-12        -0.5        4.25
-1.3751e-12        -0.5         4.5
-1.3751e-12        -0.5        4.75
-1.3751e-12        -0.5           5
-1.3751e-12        -0.5        5.25
-1.3751e-12        -0.5         5.5
-1.3751e-12        -0.5        5.75
-1.3751e-12        -0.5           6
-1.3751e-12        -0.5        6.25
-1.3751e-12        -0.5         6.5
-1.3751e-12        -0.5        6.75
-1.3751e-12        -0.5           7
-1.3751e-12        -0.5        7.25
-1.3751e-12        -0.5         7.5
-1.3751e-12        -0.5        7.75
-1.3751e-12        -0.5           8
-1.3751e-12        -0.5        8.25
-1.3751e-12        -0.5         8.5
-1.3751e-12        -0.5        8.75
-1.3751e-12        -0.5           9
-1.3751e-12        -0.5        9.25
-1.3751e-12        -0.5         9.5
-1.3751e-12        -0.5        9.75
0.25        -0.5        0.25
0.25        -0.5         0.5
0.25        -0.5        0.75
0.25        -0.5           1
0.25        -0.5        1.25
0.25        -0.5         1.5
0.25        -0.5        1.75
0.25        -0.5           2
0.25        -0.5        2.25
0.25        -0.5         2.5
0.25        -0.5        2.75
0.25        -0.5           3
0.25        -0.5        3.25
0.25        -0.5         3.5
0.25        -0.5        3.75
0.25        -0.5           4
0.25        -0.5        4.25
0.25        -0.5         4.5
0.25        -0.5        4.75
0.25        -0.5           5
0.25        -0.5        5.25
0.25        -0.5         5.5
0.25        -0.5        5.75
0.25        -0.5           6
0.25        -0.5        6.25
0.25        -0.5         6.5
0.25        -0.5        6.75
0.25        -0.5           7
0.25        -0.5        7.25
0.25        -0.5         7.5
0.25        -0.5        7.75
0.25        -0.5           8
0.25        -0.5        8.25
0.25        -0.5         8.5
0.25        -0.5        8.75
0.25        -0.5           9
0.25        -0.5        9.25
0.25        -0.5         9.5
0.25        -0.5        9.75
0.5       -0.25        0.25
0.5       -0.25         0.5
0.5       -0.25        0.75
0.5       -0.25           1
0.5       -0.25        1.25
0.5       -0.25         1.5
0.5       -0.25        1.75
0.5       -0.25           2
0.5       -0.25        2.25
0.5       -0.25         2.5
0.5       -0.25        2.75
0.5       -0.25           3
0.5       -0.25        3.25
0.5       -0.25         3.5
0.5       -0.25        3.75
0.5       -0.25           4
0.5       -0.25        4.25
[...]
POINT_DATA 1025
VECTORS displacement double
0  0  0
0  0  0
0  0  0
0  0  0
0.5      1.2071    -0.53884
-1.2071         0.5    -0.53884
-0.5     -1.2071    -0.53884
1.2071        -0.5    -0.53884
0  0  0
0  0  0
0  0  0
0  0  0
0  0  0
0  0  0
0  0  0
0  0  0
0  0  0
0  0  0
0  0  0
0  0  0
0.073223      1.0303    -0.55166
-0.35355     0.85355    -0.50116
-0.78033     0.67678    -0.46624
-1.0303    0.073223    -0.55166
-0.85355    -0.35355    -0.50116
-0.67678    -0.78033    -0.46624
-0.073223     -1.0303    -0.55166
0.35355    -0.85355    -0.50116
0.78033    -0.67678    -0.46624
1.0303   -0.073223    -0.55166
0.85355     0.35355    -0.50116
0.67678     0.78033    -0.46624
0.12814   -0.073514  -0.0034136
0.28574    -0.14366   -0.019173
0.45704    -0.17493   -0.034153
0.63027    -0.16361   -0.047518
0.79418    -0.10935   -0.059676
0.93849   -0.015635   -0.071312
1.0543     0.11139    -0.08286
1.1343      0.2635   -0.094446
1.1734     0.43088    -0.10607
1.1691     0.60272    -0.11771
1.1216     0.76795    -0.12935
1.0341      0.9159      -0.141
0.9121       1.037    -0.15264
0.76354      1.1235    -0.16428
0.59797      1.1698    -0.17592
0.42609      1.1729    -0.18756
0.25898      1.1326     -0.1992
0.10741      1.0515    -0.21084
-0.018841     0.93478    -0.22248
-0.11163     0.79006    -0.23412
-0.16497     0.62664    -0.24577
-0.17543     0.45505    -0.25741
-0.14233     0.28636    -0.26905
-0.0678     0.13145    -0.28069
0.043347  0.00030415    -0.29233
0.18395   -0.098613    -0.30397
0.34493    -0.15892    -0.31561
0.51591    -0.17674    -0.32725
0.68587     -0.1509    -0.33889
0.84384   -0.083089    -0.35054
0.97965     0.02233     -0.3622
1.0845     0.15853    -0.37386
1.1517     0.31665    -0.38545
1.177     0.48643    -0.39682
1.1585     0.65694    -0.40779
1.0964     0.81754    -0.41872
0.99221     0.95851    -0.43192
0.8492      1.0713    -0.45341
0.67746      1.1504    -0.48898
0.073514     0.12814  -0.0034136
0.14366     0.28574   -0.019173
0.17493     0.45704   -0.034153
0.16361     0.63027   -0.047518
0.10935     0.79418   -0.059676
0.015635     0.93849   -0.071312
-0.11139      1.0543    -0.08286
-0.2635      1.1343   -0.094446
-0.43088      1.1734    -0.10607
-0.60272      1.1691    -0.11771
-0.76795      1.1216    -0.12935
-0.9159      1.0341      -0.141
-1.037      0.9121    -0.15264
-1.1235     0.76354    -0.16428
-1.1698     0.59797    -0.17592
-1.1729     0.42609    -0.18756
-1.1326     0.25898     -0.1992
-1.0515     0.10741    -0.21084
-0.93478   -0.018841    -0.22248
-0.79006    -0.11163    -0.23412
-0.62664    -0.16497    -0.24577
-0.45505    -0.17543    -0.25741
-0.28636    -0.14233    -0.26905
-0.13145     -0.0678    -0.28069
-0.00030415    0.043347    -0.29233
0.098613     0.18395    -0.30397
0.15892     0.34493    -0.31561
0.17674     0.51591    -0.32725
0.1509     0.68587    -0.33889
0.083089     0.84384    -0.35054
-0.02233     0.97965     -0.3622
-0.15853      1.0845    -0.37386
-0.31665      1.1517    -0.38545
-0.48643       1.177    -0.39682
-0.65694      1.1585    -0.40779
-0.81754      1.0964    -0.41872
-0.95851     0.99221    -0.43192
-1.0713      0.8492    -0.45341
-1.1504     0.67746    -0.48898
-0.12814    0.073514  -0.0034136
-0.28574     0.14366   -0.019173
-0.45704     0.17493   -0.034153
-0.63027     0.16361   -0.047518
-0.79418     0.10935   -0.059676
-0.93849    0.015635   -0.071312
-1.0543    -0.11139    -0.08286
-1.1343     -0.2635   -0.094446
-1.1734    -0.43088    -0.10607
-1.1691    -0.60272    -0.11771
-1.1216    -0.76795    -0.12935
-1.0341     -0.9159      -0.141
-0.9121      -1.037    -0.15264
-0.76354     -1.1235    -0.16428
-0.59797     -1.1698    -0.17592
-0.42609     -1.1729    -0.18756
-0.25898     -1.1326     -0.1992
-0.10741     -1.0515    -0.21084
0.018841    -0.93478    -0.22248
0.11163    -0.79006    -0.23412
0.16497    -0.62664    -0.24577
0.17543    -0.45505    -0.25741
0.14233    -0.28636    -0.26905
0.0678    -0.13145    -0.28069
-0.043347 -0.00030415    -0.29233
-0.18395    0.098613    -0.30397
-0.34493     0.15892    -0.31561
-0.51591     0.17674    -0.32725
-0.68587      0.1509    -0.33889
-0.84384    0.083089    -0.35054
-0.97965    -0.02233     -0.3622
-1.0845    -0.15853    -0.37386
-1.1517    -0.31665    -0.38545
-1.177    -0.48643    -0.39682
-1.1585    -0.65694    -0.40779
-1.0964    -0.81754    -0.41872
-0.99221    -0.95851    -0.43192
-0.8492     -1.0713    -0.45341
-0.67746     -1.1504    -0.48898
-0.073514    -0.12814  -0.0034136
-0.14366    -0.28574   -0.019173
-0.17493    -0.45704   -0.034153
-0.16361    -0.63027   -0.047518
-0.10935    -0.79418   -0.059676
-0.015635    -0.93849   -0.071312
0.11139     -1.0543    -0.08286
0.2635     -1.1343   -0.094446
0.43088     -1.1734    -0.10607
0.60272     -1.1691    -0.11771
0.76795     -1.1216    -0.12935
0.9159     -1.0341      -0.141
1.037     -0.9121    -0.15264
1.1235    -0.76354    -0.16428
1.1698    -0.59797    -0.17592
1.1729    -0.42609    -0.18756
1.1326    -0.25898     -0.1992
1.0515    -0.10741    -0.21084
0.93478    0.018841    -0.22248
0.79006     0.11163    -0.23412
0.62664     0.16497    -0.24577
0.45505     0.17543    -0.25741
0.28636     0.14233    -0.26905
0.13145      0.0678    -0.28069
0.00030415   -0.043347    -0.29233
-0.098613    -0.18395    -0.30397
-0.15892    -0.34493    -0.31561
-0.17674    -0.51591    -0.32725
-0.1509    -0.68587    -0.33889
-0.083089    -0.84384    -0.35054
0.02233    -0.97965     -0.3622
0.15853     -1.0845    -0.37386
0.31665     -1.1517    -0.38545
0.48643      -1.177    -0.39682
0.65694     -1.1585    -0.40779
0.81754     -1.0964    -0.41872
0.95851    -0.99221    -0.43192
1.0713     -0.8492    -0.45341
1.1504    -0.67746    -0.48898
0  0  0
0  0  0
0  0  0
0  0  0
0  0  0
0  0  0
0  0  0
0  0  0
0  0  0
0.11601   -0.026247   -0.039313
0.24809   -0.036102   -0.059447
0.38445   -0.017726   -0.073933
0.51192    0.033517   -0.086354
0.62165     0.11469   -0.097999
0.70693     0.22071    -0.10952
0.76258     0.34476    -0.12109
0.78516     0.47884    -0.13271
0.77322     0.61431    -0.14435
0.72755     0.74242      -0.156
0.65108      0.8549    -0.16764
0.54875     0.94449    -0.17928
0.42715      1.0054    -0.19092
0.29413      1.0337    -0.20256
0.15826      1.0276    -0.21421
0.028302     0.98752    -0.22585
-0.087353     0.91595    -0.23749
-0.18125     0.81756    -0.24913
-0.24734     0.69869    -0.26077
-0.28135       0.567    -0.27241
-0.28109     0.43099    -0.28405
-0.24658     0.29944    -0.29569
-0.18005     0.18082    -0.30733
-0.08578     0.08278    -0.31897
0.030145    0.011651    -0.33061
0.16025   -0.027983    -0.34226
0.29614   -0.033566     -0.3539
0.42906  -0.0047363    -0.36554
0.55043    0.056648    -0.37718
0.65242     0.14663    -0.38882
0.72846      0.2594    -0.40047
0.77367     0.38767    -0.41211
0.78518     0.52312    -0.42371
0.76234     0.65701    -0.43518
0.70645      0.7807    -0.44653
0.62014     0.88603    -0.45817
0.50658       0.965    -0.47167
0.37036      1.0104    -0.49047
0.22438      1.0216    -0.51486
0.11037     0.02262  -0.0074335
0.21728    0.067696   -0.021005
0.3192     0.13785   -0.035602
0.40128     0.23067   -0.048126
0.45679     0.34077   -0.059753
0.48236     0.46102   -0.071243
0.47665     0.58375   -0.082804
0.44019     0.70107   -0.094425
0.37534     0.80545    -0.10607
0.28629     0.89015    -0.11771
0.17878     0.94968    -0.12936
0.059743     0.98022      -0.141
-0.06315     0.97978    -0.15264
-0.18197      0.9484    -0.16428
-0.28906     0.88811    -0.17592
-0.3775     0.80278    -0.18756
-0.44159     0.69792     -0.1992
-0.47721     0.58031    -0.21084
-0.48205     0.45751    -0.22248
-0.4558     0.33745    -0.23412
-0.40016     0.22787    -0.24577
-0.31871     0.13585    -0.25741
-0.2167     0.06731    -0.26905
-0.10072    0.026676    -0.28069
0.021758    0.016568    -0.29233
0.14283    0.037638    -0.30397
0.25469    0.088526    -0.31561
0.35013     0.16595    -0.32725
0.42299     0.26492    -0.33889
0.46856     0.37906    -0.35053
0.48391       0.501    -0.36218
0.46807     0.62287    -0.37385
0.42212     0.73681    -0.38553
0.34909     0.83544    -0.39714
0.25371     0.91239    -0.40841
0.14164     0.96234    -0.41898
0.018744     0.98067      -0.429
-0.1097     0.96356    -0.44188
-0.23559      0.9122    -0.46473
0.093967     0.08081    0.019104
0.18064      0.1813    0.015688
0.24598     0.30157   0.0035517
0.28065     0.43418  -0.0091154
0.28061     0.57068   -0.021208
0.24588     0.70229   -0.032933
0.17898     0.82068   -0.044548
0.084391     0.91837   -0.056161
-0.031768     0.98908   -0.067789
-0.162      1.0283   -0.079428
-0.29791      1.0334    -0.09107
-0.43073      1.0041    -0.10271
-0.5519     0.94236    -0.11435
-0.65359     0.85204    -0.12599
-0.72926     0.73903    -0.13763
-0.77401      0.6106    -0.14928
-0.78497     0.47503    -0.16092
-0.76143     0.34108    -0.17256
-0.70491     0.21737     -0.1842
-0.61905     0.11189    -0.19584
-0.50938    0.031448    -0.20748
-0.38299   -0.018782    -0.21912
-0.24802   -0.035553    -0.23076
-0.11318   -0.017785     -0.2424
0.012836    0.033376    -0.25404
0.1219     0.11463    -0.26568
0.20698     0.22074    -0.27733
0.26259     0.34486    -0.28897
0.28514     0.47898    -0.30061
0.27318     0.61447    -0.31225
0.22747     0.74258     -0.3239
0.15099     0.85505    -0.33556
0.048707     0.94463    -0.34722
-0.072685      1.0055     -0.3588
-0.20533      1.0337     -0.3701
-0.34092      1.0269    -0.38093
-0.47172     0.98388    -0.39181
-0.59122     0.90463    -0.40548
-0.69587      0.7924      -0.431
0.026247     0.11601   -0.039313
0.036102     0.24809   -0.059447
0.017726     0.38445   -0.073933
-0.033517     0.51192   -0.086354
-0.11469     0.62165   -0.097999
-0.22071     0.70693    -0.10952
-0.34476     0.76258    -0.12109
-0.47884     0.78516    -0.13271
-0.61431     0.77322    -0.14435
-0.74242     0.72755      -0.156
-0.8549     0.65108    -0.16764
-0.94449     0.54875    -0.17928
-1.0054     0.42715    -0.19092
-1.0337     0.29413    -0.20256
-1.0276     0.15826    -0.21421
-0.98752    0.028302    -0.22585
-0.91595   -0.087353    -0.23749
-0.81756    -0.18125    -0.24913
-0.69869    -0.24734    -0.26077
-0.567    -0.28135    -0.27241
-0.43099    -0.28109    -0.28405
-0.29944    -0.24658    -0.29569
-0.18082    -0.18005    -0.30733
-0.08278    -0.08578    -0.31897
-0.011651    0.030145    -0.33061
0.027983     0.16025    -0.34226
0.033566     0.29614     -0.3539
0.0047363     0.42906    -0.36554
-0.056648     0.55043    -0.37718
-0.14663     0.65242    -0.38882
-0.2594     0.72846    -0.40047
-0.38767     0.77367    -0.41211
-0.52312     0.78518    -0.42371
-0.65701     0.76234    -0.43518
-0.7807     0.70645    -0.44653
-0.88603     0.62014    -0.45817
-0.965     0.50658    -0.47167
-1.0104     0.37036    -0.49047
-1.0216     0.22438    -0.51486
-0.02262     0.11037  -0.0074335
-0.067696     0.21728   -0.021005
-0.13785      0.3192   -0.035602
-0.23067     0.40128   -0.048126
-0.34077     0.45679   -0.059753
-0.46102     0.48236   -0.071243
-0.58375     0.47665   -0.082804
-0.70107     0.44019   -0.094425
-0.80545     0.37534    -0.10607
-0.89015     0.28629    -0.11771
-0.94968     0.17878    -0.12936
-0.98022    0.059743      -0.141
-0.97978    -0.06315    -0.15264
-0.9484    -0.18197    -0.16428
-0.88811    -0.28906    -0.17592
-0.80278     -0.3775    -0.18756
-0.69792    -0.44159     -0.1992
-0.58031    -0.47721    -0.21084
-0.45751    -0.48205    -0.22248
-0.33745     -0.4558    -0.23412
-0.22787    -0.40016    -0.24577
-0.13585    -0.31871    -0.25741
-0.06731     -0.2167    -0.26905
-0.026676    -0.10072    -0.28069
-0.016568    0.021758    -0.29233
-0.037638     0.14283    -0.30397
-0.088526     0.25469    -0.31561
-0.16595     0.35013    -0.32725
-0.26492     0.42299    -0.33889
-0.37906     0.46856    -0.35053
-0.501     0.48391    -0.36218
-0.62287     0.46807    -0.37385
-0.73681     0.42212    -0.38553
-0.83544     0.34909    -0.39714
-0.91239     0.25371    -0.40841
-0.96234     0.14164    -0.41898
-0.98067    0.018744      -0.429
-0.96356     -0.1097    -0.44188
-0.9122    -0.23559    -0.46473
-0.08081    0.093967    0.019104
-0.1813     0.18064    0.015688
-0.30157     0.24598   0.0035517
-0.43418     0.28065  -0.0091154
-0.57068     0.28061   -0.021208
-0.70229     0.24588   -0.032933
-0.82068     0.17898   -0.044548
-0.91837    0.084391   -0.056161
-0.98908   -0.031768   -0.067789
-1.0283      -0.162   -0.079428
-1.0334    -0.29791    -0.09107
-1.0041    -0.43073    -0.10271
-0.94236     -0.5519    -0.11435
-0.85204    -0.65359    -0.12599
-0.73903    -0.72926    -0.13763
-0.6106    -0.77401    -0.14928
-0.47503    -0.78497    -0.16092
-0.34108    -0.76143    -0.17256
-0.21737    -0.70491     -0.1842
-0.11189    -0.61905    -0.19584
-0.031448    -0.50938    -0.20748
0.018782    -0.38299    -0.21912
0.035553    -0.24802    -0.23076
0.017785    -0.11318     -0.2424
-0.033376    0.012836    -0.25404
-0.11463      0.1219    -0.26568
-0.22074     0.20698    -0.27733
-0.34486     0.26259    -0.28897
-0.47898     0.28514    -0.30061
-0.61447     0.27318    -0.31225
-0.74258     0.22747     -0.3239
-0.85505     0.15099    -0.33556
-0.94463    0.048707    -0.34722
-1.0055   -0.072685     -0.3588
-1.0337    -0.20533     -0.3701
-1.0269    -0.34092    -0.38093
-0.98388    -0.47172    -0.39181
-0.90463    -0.59122    -0.40548
-0.7924    -0.69587      -0.431
-0.11601    0.026247   -0.039313
-0.24809    0.036102   -0.059447
-0.38445    0.017726   -0.073933
-0.51192   -0.033517   -0.086354
-0.62165    -0.11469   -0.097999
-0.70693    -0.22071    -0.10952
-0.76258    -0.34476    -0.12109
-0.78516    -0.47884    -0.13271
-0.77322    -0.61431    -0.14435
-0.72755    -0.74242      -0.156
-0.65108     -0.8549    -0.16764
-0.54875    -0.94449    -0.17928
-0.42715     -1.0054    -0.19092
-0.29413     -1.0337    -0.20256
-0.15826     -1.0276    -0.21421
-0.028302    -0.98752    -0.22585
0.087353    -0.91595    -0.23749
0.18125    -0.81756    -0.24913
0.24734    -0.69869    -0.26077
0.28135      -0.567    -0.27241
0.28109    -0.43099    -0.28405
0.24658    -0.29944    -0.29569
0.18005    -0.18082    -0.30733
0.08578    -0.08278    -0.31897
-0.030145   -0.011651    -0.33061
-0.16025    0.027983    -0.34226
-0.29614    0.033566     -0.3539
-0.42906   0.0047363    -0.36554
-0.55043   -0.056648    -0.37718
-0.65242    -0.14663    -0.38882
-0.72846     -0.2594    -0.40047
-0.77367    -0.38767    -0.41211
-0.78518    -0.52312    -0.42371
-0.76234    -0.65701    -0.43518
-0.70645     -0.7807    -0.44653
-0.62014    -0.88603    -0.45817
-0.50658      -0.965    -0.47167
-0.37036     -1.0104    -0.49047
-0.22438     -1.0216    -0.51486
-0.11037    -0.02262  -0.0074335
-0.21728   -0.067696   -0.021005
-0.3192    -0.13785   -0.035602
-0.40128    -0.23067   -0.048126
-0.45679    -0.34077   -0.059753
-0.48236    -0.46102   -0.071243
-0.47665    -0.58375   -0.082804
-0.44019    -0.70107   -0.094425
-0.37534    -0.80545    -0.10607
-0.28629    -0.89015    -0.11771
-0.17878    -0.94968    -0.12936
-0.059743    -0.98022      -0.141
0.06315    -0.97978    -0.15264
0.18197     -0.9484    -0.16428
0.28906    -0.88811    -0.17592
0.3775    -0.80278    -0.18756
0.44159    -0.69792     -0.1992
0.47721    -0.58031    -0.21084
0.48205    -0.45751    -0.22248
0.4558    -0.33745    -0.23412
0.40016    -0.22787    -0.24577
0.31871    -0.13585    -0.25741
0.2167    -0.06731    -0.26905
0.10072   -0.026676    -0.28069
-0.021758   -0.016568    -0.29233
-0.14283   -0.037638    -0.30397
-0.25469   -0.088526    -0.31561
-0.35013    -0.16595    -0.32725
-0.42299    -0.26492    -0.33889
-0.46856    -0.37906    -0.35053
-0.48391      -0.501    -0.36218
-0.46807    -0.62287    -0.37385
-0.42212    -0.73681    -0.38553
-0.34909    -0.83544    -0.39714
-0.25371    -0.91239    -0.40841
-0.14164    -0.96234    -0.41898
-0.018744    -0.98067      -0.429
0.1097    -0.96356    -0.44188
0.23559     -0.9122    -0.46473
-0.093967    -0.08081    0.019104
-0.18064     -0.1813    0.015688
-0.24598    -0.30157   0.0035517
-0.28065    -0.43418  -0.0091154
-0.28061    -0.57068   -0.021208
-0.24588    -0.70229   -0.032933
-0.17898    -0.82068   -0.044548
-0.084391    -0.91837   -0.056161
0.031768    -0.98908   -0.067789
0.162     -1.0283   -0.079428
0.29791     -1.0334    -0.09107
0.43073     -1.0041    -0.10271
0.5519    -0.94236    -0.11435
0.65359    -0.85204    -0.12599
0.72926    -0.73903    -0.13763
0.77401     -0.6106    -0.14928
0.78497    -0.47503    -0.16092
0.76143    -0.34108    -0.17256
0.70491    -0.21737     -0.1842
0.61905    -0.11189    -0.19584
0.50938   -0.031448    -0.20748
0.38299    0.018782    -0.21912
0.24802    0.035553    -0.23076
0.11318    0.017785     -0.2424
-0.012836   -0.033376    -0.25404
-0.1219    -0.11463    -0.26568
-0.20698    -0.22074    -0.27733
-0.26259    -0.34486    -0.28897
-0.28514    -0.47898    -0.30061
-0.27318    -0.61447    -0.31225
-0.22747    -0.74258     -0.3239
-0.15099    -0.85505    -0.33556
-0.048707    -0.94463    -0.34722
0.072685     -1.0055     -0.3588
0.20533     -1.0337     -0.3701
0.34092     -1.0269    -0.38093
0.47172    -0.98388    -0.39181
0.59122    -0.90463    -0.40548
0.69587     -0.7924      -0.431
-0.026247    -0.11601   -0.039313
-0.036102    -0.24809   -0.059447
-0.017726    -0.38445   -0.073933
0.033517    -0.51192   -0.086354
0.11469    -0.62165   -0.097999
0.22071    -0.70693    -0.10952
0.34476    -0.76258    -0.12109
0.47884    -0.78516    -0.13271
0.61431    -0.77322    -0.14435
0.74242    -0.72755      -0.156
0.8549    -0.65108    -0.16764
0.94449    -0.54875    -0.17928
1.0054    -0.42715    -0.19092
1.0337    -0.29413    -0.20256
1.0276    -0.15826    -0.21421
0.98752   -0.028302    -0.22585
0.91595    0.087353    -0.23749
0.81756     0.18125    -0.24913
0.69869     0.24734    -0.26077
0.567     0.28135    -0.27241
0.43099     0.28109    -0.28405
0.29944     0.24658    -0.29569
0.18082     0.18005    -0.30733
0.08278     0.08578    -0.31897
0.011651   -0.030145    -0.33061
-0.027983    -0.16025    -0.34226
-0.033566    -0.29614     -0.3539
-0.0047363    -0.42906    -0.36554
0.056648    -0.55043    -0.37718
0.14663    -0.65242    -0.38882
0.2594    -0.72846    -0.40047
0.38767    -0.77367    -0.41211
0.52312    -0.78518    -0.42371
0.65701    -0.76234    -0.43518
0.7807    -0.70645    -0.44653
0.88603    -0.62014    -0.45817
0.965    -0.50658    -0.47167
1.0104    -0.37036    -0.49047
1.0216    -0.22438    -0.51486
0.02262    -0.11037  -0.0074335
0.067696    -0.21728   -0.021005
0.13785     -0.3192   -0.035602
0.23067    -0.40128   -0.048126
0.34077    -0.45679   -0.059753
0.46102    -0.48236   -0.071243
0.58375    -0.47665   -0.082804
0.70107    -0.44019   -0.094425
0.80545    -0.37534    -0.10607
0.89015    -0.28629    -0.11771
0.94968    -0.17878    -0.12936
0.98022   -0.059743      -0.141
0.97978     0.06315    -0.15264
0.9484     0.18197    -0.16428
0.88811     0.28906    -0.17592
0.80278      0.3775    -0.18756
0.69792     0.44159     -0.1992
0.58031     0.47721    -0.21084
0.45751     0.48205    -0.22248
0.33745      0.4558    -0.23412
0.22787     0.40016    -0.24577
0.13585     0.31871    -0.25741
0.06731      0.2167    -0.26905
0.026676     0.10072    -0.28069
0.016568   -0.021758    -0.29233
0.037638    -0.14283    -0.30397
0.088526    -0.25469    -0.31561
0.16595    -0.35013    -0.32725
0.26492    -0.42299    -0.33889
0.37906    -0.46856    -0.35053
0.501    -0.48391    -0.36218
0.62287    -0.46807    -0.37385
0.73681    -0.42212    -0.38553
0.83544    -0.34909    -0.39714
0.91239    -0.25371    -0.40841
0.96234    -0.14164    -0.41898
0.98067   -0.018744      -0.429
0.96356      0.1097    -0.44188
0.9122     0.23559    -0.46473
0.08081   -0.093967    0.019104
0.1813    -0.18064    0.015688
0.30157    -0.24598   0.0035517
0.43418    -0.28065  -0.0091154
0.57068    -0.28061   -0.021208
0.70229    -0.24588   -0.032933
0.82068    -0.17898   -0.044548