# vtk DataFile Version 3.0
VTK Output
ASCII
DATASET UNSTRUCTURED_GRID

POINTS 1025 float
-0.5        -0.5           0
0.5        -0.5           0
0.5         0.5           0
-0.5         0.5           0
-0.5         -0.5           10
0.5         -0.5           10
0.5          0.5           10
-0.5          0.5           10
-0.25        -0.5           0
-1.3751e-12        -0.5           0
0.25        -0.5           0
0.5       -0.25           0
0.5 -1.3751e-12           0
0.5        0.25           0
0.25         0.5           0
1.3751e-12         0.5           0
-0.25         0.5           0
-0.5        0.25           0
-0.5  1.3751e-12           0
-0.5       -0.25           0
-0.25         -0.5           10
-1.37512e-12         -0.5           10
0.25         -0.5           10
0.5        -0.25           10
0.5 -1.37512e-12           10
0.5         0.25           10
0.25          0.5           10
1.37512e-12          0.5           10
-0.25          0.5           10
-0.5         0.25           10
-0.5  1.37512e-12           10
-0.5        -0.25           10
-0.5        -0.5        0.25
-0.5        -0.5         0.5
-0.5        -0.5        0.75
-0.5        -0.5           1
-0.5        -0.5        1.25
-0.5        -0.5         1.5
-0.5        -0.5        1.75
-0.5        -0.5           2
-0.5        -0.5        2.25
-0.5        -0.5         2.5
-0.5        -0.5        2.75
-0.5        -0.5           3
-0.5        -0.5        3.25
-0.5        -0.5         3.5
-0.5        -0.5        3.75
-0.5        -0.5           4
-0.5        -0.5        4.25
-0.5        -0.5         4.5
-0.5        -0.5        4.75
-0.5        -0.5           5
-0.5        -0.5        5.25
-0.5        -0.5         5.5
-0.5        -0.5        5.75
-0.5        -0.5           6
-0.5        -0.5        6.25
-0.5        -0.5         6.5
-0.5        -0.5        6.75
-0.5        -0.5           7
-0.5        -0.5        7.25
-0.5        -0.5         7.5
-0.5        -0.5        7.75
-0.5        -0.5           8
-0.5        -0.5        8.25
-0.5        -0.5         8.5
-0.5        -0.5        8.75
-0.5        -0.5           9
-0.5        -0.5        9.25
-0.5        -0.5         9.5
-0.5        -0.5        9.75
0.5        -0.5        0.25
0.5        -0.5         0.5
0.5        -0.5        0.75
0.5        -0.5           1
0.5        -0.5        1.25
0.5        -0.5         1.5
0.5        -0.5        1.75
0.5        -0.5           2
0.5        -0.5        2.25
0.5        -0.5         2.5
0.5        -0.5        2.75
0.5        -0.5           3
0.5        -0.5        3.25
0.5        -0.5         3.5
0.5        -0.5        3.75
0.5        -0.5           4
0.5        -0.5        4.25
0.5        -0.5         4.5
0.5        -0.5        4.75
0.5        -0.5           5
0.5        -0.5        5.25
0.5        -0.5         5.5
0.5        -0.5        5.75
0.5        -0.5           6
0.5        -0.5        6.25
0.5        -0.5         6.5
0.5        -0.5        6.75
0.5        -0.5           7
0.5        -0.5        7.25
0.5        -0.5         7.5
0.5        -0.5        7.75
0.5        -0.5           8
0.5        -0.5        8.25
0.5        -0.5         8.5
0.5        -0.5        8.75
0.5        -0.5           9
0.5        -0.5        9.25
0.5        -0.5         9.5
0.5        -0.5        9.75
0.5         0.5        0.25
0.5         0.5         0.5
0.5         0.5        0.75
0.5         0.5           1
0.5         0.5        1.25
0.5         0.5         1.5
0.5         0.5        1.75
0.5         0.5           2
0.5         0.5        2.25
0.5         0.5         2.5
0.5         0.5        2.75
0.5         0.5           3
0.5         0.5        3.25
0.5         0.5         3.5
0.5         0.5        3.75
0.5         0.5           4
0.5         0.5        4.25
0.5         0.5         4.5
0.5         0.5        4.75
0.5         0.5           5
0.5         0.5        5.25
0.5         0.5         5.5
0.5         0.5        5.75
0.5         0.5           6
0.5         0.5        6.25
0.5         0.5         6.5
0.5         0.5        6.75
0.5         0.5           7
0.5         0.5        7.25
0.5         0.5         7.5
0.5         0.5        7.75
0.5         0.5           8
0.5         0.5        8.25
0.5         0.5         8.5
0.5         0.5        8.75
0.5         0.5           9
0.5         0.5        9.25
0.5         0.5         9.5
0.5         0.5        9.75
-0.5         0.5        0.25
-0.5         0.5         0.5
-0.5         0.5        0.75
-0.5         0.5           1
-0.5         0.5        1.25
-0.5         0.5         1.5
-0.5         0.5        1.75
-0.5         0.5           2
-0.5         0.5        2.25
-0.5         0.5         2.5
-0.5         0.5        2.75
-0.5         0.5           3
-0.5         0.5        3.25
-0.5         0.5         3.5
-0.5         0.5        3.75
-0.5         0.5           4
-0.5         0.5        4.25
-0.5         0.5         4.5
-0.5         0.5        4.75
-0.5         0.5           5
-0.5         0.5        5.25
-0.5         0.5         5.5
-0.5         0.5        5.75
-0.5         0.5           6
-0.5         0.5        6.25
-0.5         0.5         6.5
-0.5         0.5        6.75
-0.5         0.5           7
-0.5         0.5        7.25
-0.5         0.5         7.5
-0.5         0.5        7.75
-0.5         0.5           8
-0.5         0.5        8.25
-0.5         0.5         8.5
-0.5         0.5        8.75
-0.5         0.5           9
-0.5         0.5        9.25
-0.5         0.5         9.5
-0.5         0.5        9.75
-0.25       -0.25           0
-0.25  6.8756e-13           0
-0.25        0.25           0
-6.8756e-13       -0.25           0
-3.7821e-24           0           0
6.8756e-13        0.25           0
0.25       -0.25           0
0.25 -6.8756e-13           0
0.25        0.25           0
-0.25        -0.5        0.25
-0.25        -0.5         0.5
-0.25        -0.5        0.75
-0.25        -0.5           1
-0.25        -0.5        1.25
-0.25        -0.5         1.5
-0.25        -0.5        1.75
-0.25        -0.5           2
-0.25        -0.5        2.25
-0.25        -0.5         2.5
-0.25        -0.5        2.75
-0.25        -0.5           3
-0.25        -0.5        3.25
-0.25        -0.5         3.5
-0.25        -0.5        3.75
-0.25        -0.5           4
-0.25        -0.5        4.25
-0.25        -0.5         4.5
-0.25        -0.5        4.75
-0.25        -0.5           5
-0.25        -0.5        5.25
-0.25        -0.5         5.5
-0.25        -0.5        5.75
-0.25        -0.5           6
-0.25        -0.5        6.25
-0.25        -0.5         6.5
-0.25        -0.5        6.75
-0.25        -0.5           7
-0.25        -0.5        7.25
-0.25        -0.5         7.5
-0.25        -0.5        7.75
-0.25        -0.5           8
-0.25        -0.5        8.25
-0.25        -0.5         8.5
-0.25        -0.5        8.75
-0.25        -0.5           9
-0.25        -0.5        9.25
-0.25        -0.5         9.5
-0.25        -0.5        9.75
-1.3751e-12        -0.5        0.25
-1.3751e-12        -0.5         0.5
-1.3751e-12        -0.5        0.75
-1.3751e-12        -0.5           1
-1.3751e-12        -0.5        1.25
-1.3751e-12        -0.5         1.5
-1.3751e-12        -0.5        1.75
-1.3751e-12        -0.5           2
-1.3751e-12        -0.5        2.25
-1.3751e-12        -0.5         2.5
-1.3751e-12        -0.5        2.75
-1.3751e-12        -0.5           3
-1.3751e-12        -0.5        3.25
-1.3751e-12        -0.5         3.5
-1.3751e-12        -0.5        3.75
-1.3751e-12        -0.5           4
-1.3751e-12        -0.5        4.25
-1.3751e-12        -0.5         4.5
-1.3751e-12        -0.5        4.75
-1.3751e-12        -0.5           5
-1.3751e-12        -0.5        5.25
-1.3751e-12        -0.5         5.5
-1.3751e-12        -0.5        5.75
-1.3751e-12        -0.5           6
-1.3751e-12        -0.5        6.25
-1.3751e-12        -0.5         6.5
-1.3751e-12        -0.5        6.75
-1.3751e-12        -0.5           7
-1.3751e-12        -0.5        7.25
-1.3751e-12        -0.5         7.5
-1.3751e-12        -0.5        7.75
-1.3751e-12        -0.5           8
-1.3751e-12        -0.5        8.25
-1.3751e-12        -0.5         8.5
-1.3751e-12        -0.5        8.75
-1.3751e-12        -0.5           9
-1.3751e-12        -0.5        9.25
-1.3751e-12        -0.5         9.5
-1.3751e-12        -0.5        9.75
0.25        -0.5        0.25
0.25        -0.5         0.5
0.25        -0.5        0.75
0.25        -0.5           1
0.25        -0.5        1.25
0.25        -0.5         1.5
0.25        -0.5        1.75
0.25        -0.5           2
0.25        -0.5        2.25
0.25        -0.5         2.5
0.25        -0.5        2.75
0.25        -0.5           3
0.25        -0.5        3.25
0.25        -0.5         3.5
0.25        -0.5        3.75
0.25        -0.5           4
0.25        -0.5        4.25
0.25        -0.5         4.5
0.25        -0.5        4.75
0.25        -0.5           5
0.25        -0.5        5.25
0.25        -0.5         5.5
0.25        -0.5        5.75
0.25        -0.5           6
0.25        -0.5        6.25
0.25        -0.5         6.5
0.25        -0.5        6.75
0.25        -0.5           7
0.25        -0.5        7.25
0.25        -0.5         7.5
0.25        -0.5        7.75
0.25        -0.5           8
0.25        -0.5        8.25
0.25        -0.5         8.5
0.25        -0.5        8.75
0.25        -0.5           9
0.25        -0.5        9.25
0.25        -0.5         9.5
0.25        -0.5        9.75
0.5       -0.25        0.25
0.5       -0.25         0.5
0.5       -0.25        0.75
0.5       -0.25           1
0.5       -0.25        1.25
0.5       -0.25         1.5
0.5       -0.25        1.75
0.5       -0.25           2
0.5       -0.25        2.25
0.5       -0.25         2.5
0.5       -0.25        2.75
0.5       -0.25           3
0.5       -0.25        3.25
0.5       -0.25         3.5
0.5       -0.25        3.75
0.5       -0.25           4
0.5       -0.25        4.25
[...]
POINT_DATA 1025
VECTORS displacement double
0  0  0
0  0  0
0  0  0
0  0  0
1.1935     0.36205    -0.37495
-0.36205      1.1935    -0.37495
-1.1935    -0.36205    -0.37495
0.36205     -1.1935    -0.37495
0  0  0
0  0  0
0  0  0
0  0  0
0  0  0
0  0  0
0  0  0
0  0  0
0  0  0
0  0  0
0  0  0
0  0  0
0.80463     0.56992    -0.39035
0.41573     0.77779    -0.35009
0.026842     0.98565    -0.32109
-0.56992     0.80463    -0.39035
-0.77779     0.41573    -0.35009
-0.98565    0.026842    -0.32109
-0.80463    -0.56992    -0.39035
-0.41573    -0.77779    -0.35009
-0.026842    -0.98565    -0.32109
0.56992    -0.80463    -0.39035
0.77779    -0.41573    -0.35009
0.98565   -0.026842    -0.32109
0.10575   -0.066995  -0.0027891
0.2355    -0.13476   -0.014357
0.37606    -0.17516   -0.024611
0.52116    -0.18607   -0.033768
0.66477     -0.1665   -0.042266
0.8008    -0.11729   -0.050493
0.9234   -0.040654   -0.058677
1.0272    0.059968   -0.066879
1.1077      0.1801   -0.075097
1.1612     0.31443   -0.083323
1.1854     0.45697   -0.091549
1.1792     0.60143   -0.099776
1.1429     0.74139      -0.108
1.0781     0.87065    -0.11623
0.98767     0.98348    -0.12445
0.87563      1.0749    -0.13268
0.74694      1.1408    -0.14091
0.60729      1.1783    -0.14913
0.4629      1.1857    -0.15736
0.32014      1.1627    -0.16558
0.18537      1.1104    -0.17381
0.064535       1.031    -0.18203
-0.036991     0.92803    -0.19026
-0.11471     0.80611    -0.19849
-0.16518     0.67061    -0.20671
-0.18616     0.52756    -0.21494
-0.17672     0.38327    -0.22316
-0.13728     0.24417    -0.23139
-0.069583     0.11641    -0.23962
0.023362   0.0056458    -0.24784
0.13744     -0.0832    -0.25608
0.26757     -0.1462    -0.26431
0.40798    -0.18056    -0.27251
0.5524    -0.18477     -0.2806
0.69444    -0.15854    -0.28851
0.82793    -0.10259    -0.29642
0.94732   -0.018214    -0.30552
1.0482    0.092352    -0.31928
1.1283     0.22367    -0.34182
0.066995     0.10575  -0.0027891
0.13476      0.2355   -0.014357
0.17516     0.37606   -0.024611
0.18607     0.52116   -0.033768
0.1665     0.66477   -0.042266
0.11729      0.8008   -0.050493
0.040654      0.9234   -0.058677
-0.059968      1.0272   -0.066879
-0.1801      1.1077   -0.075097
-0.31443      1.1612   -0.083323
-0.45697      1.1854   -0.091549
-0.60143      1.1792   -0.099776
-0.74139      1.1429      -0.108
-0.87065      1.0781    -0.11623
-0.98348     0.98767    -0.12445
-1.0749     0.87563    -0.13268
-1.1408     0.74694    -0.14091
-1.1783     0.60729    -0.14913
-1.1857      0.4629    -0.15736
-1.1627     0.32014    -0.16558
-1.1104     0.18537    -0.17381
-1.031    0.064535    -0.18203
-0.92803   -0.036991    -0.19026
-0.80611    -0.11471    -0.19849
-0.67061    -0.16518    -0.20671
-0.52756    -0.18616    -0.21494
-0.38327    -0.17672    -0.22316
-0.24417    -0.13728    -0.23139
-0.11641   -0.069583    -0.23962
-0.0056458    0.023362    -0.24784
0.0832     0.13744    -0.25608
0.1462     0.26757    -0.26431
0.18056     0.40798    -0.27251
0.18477      0.5524     -0.2806
0.15854     0.69444    -0.28851
0.10259     0.82793    -0.29642
0.018214     0.94732    -0.30552
-0.092352      1.0482    -0.31928
-0.22367      1.1283    -0.34182
-0.10575    0.066995  -0.0027891
-0.2355     0.13476   -0.014357
-0.37606     0.17516   -0.024611
-0.52116     0.18607   -0.033768
-0.66477      0.1665   -0.042266
-0.8008     0.11729   -0.050493
-0.9234    0.040654   -0.058677
-1.0272   -0.059968   -0.066879
-1.1077     -0.1801   -0.075097
-1.1612    -0.31443   -0.083323
-1.1854    -0.45697   -0.091549
-1.1792    -0.60143   -0.099776
-1.1429    -0.74139      -0.108
-1.0781    -0.87065    -0.11623
-0.98767    -0.98348    -0.12445
-0.87563     -1.0749    -0.13268
-0.74694     -1.1408    -0.14091
-0.60729     -1.1783    -0.14913
-0.4629     -1.1857    -0.15736
-0.32014     -1.1627    -0.16558
-0.18537     -1.1104    -0.17381
-0.064535      -1.031    -0.18203
0.036991    -0.92803    -0.19026
0.11471    -0.80611    -0.19849
0.16518    -0.67061    -0.20671
0.18616    -0.52756    -0.21494
0.17672    -0.38327    -0.22316
0.13728    -0.24417    -0.23139
0.069583    -0.11641    -0.23962
-0.023362  -0.0056458    -0.24784
-0.13744      0.0832    -0.25608
-0.26757      0.1462    -0.26431
-0.40798     0.18056    -0.27251
-0.5524     0.18477     -0.2806
-0.69444     0.15854    -0.28851
-0.82793     0.10259    -0.29642
-0.94732    0.018214    -0.30552
-1.0482   -0.092352    -0.31928
-1.1283    -0.22367    -0.34182
-0.066995    -0.10575  -0.0027891
-0.13476     -0.2355   -0.014357
-0.17516    -0.37606   -0.024611
-0.18607    -0.52116   -0.033768
-0.1665    -0.66477   -0.042266
-0.11729     -0.8008   -0.050493
-0.040654     -0.9234   -0.058677
0.059968     -1.0272   -0.066879
0.1801     -1.1077   -0.075097
0.31443     -1.1612   -0.083323
0.45697     -1.1854   -0.091549
0.60143     -1.1792   -0.099776
0.74139     -1.1429      -0.108
0.87065     -1.0781    -0.11623
0.98348    -0.98767    -0.12445
1.0749    -0.87563    -0.13268
1.1408    -0.74694    -0.14091
1.1783    -0.60729    -0.14913
1.1857     -0.4629    -0.15736
1.1627    -0.32014    -0.16558
1.1104    -0.18537    -0.17381
1.031   -0.064535    -0.18203
0.92803    0.036991    -0.19026
0.80611     0.11471    -0.19849
0.67061     0.16518    -0.20671
0.52756     0.18616    -0.21494
0.38327     0.17672    -0.22316
0.24417     0.13728    -0.23139
0.11641    0.069583    -0.23962
0.0056458   -0.023362    -0.24784
-0.0832    -0.13744    -0.25608
-0.1462    -0.26757    -0.26431
-0.18056    -0.40798    -0.27251
-0.18477     -0.5524     -0.2806
-0.15854    -0.69444    -0.28851
-0.10259    -0.82793    -0.29642
-0.018214    -0.94732    -0.30552
0.092352     -1.0482    -0.31928
0.22367     -1.1283    -0.34182
0  0  0
0  0  0
0  0  0
0  0  0
0  0  0
0  0  0
0  0  0
0  0  0
0  0  0
0.098373   -0.026154   -0.032153
0.20887   -0.041641   -0.047096
0.32406   -0.037582   -0.057069
0.43575  -0.0099308     -0.0657
0.53873    0.040256   -0.073918
0.62869     0.11086   -0.082088
0.70178     0.19875   -0.090283
0.75484     0.30001   -0.098499
0.78552     0.41014    -0.10672
0.79246     0.52426    -0.11495
0.77535     0.63731    -0.12318
0.73496     0.74426     -0.1314
0.67307     0.84039    -0.13963
0.59242     0.92143    -0.14785
0.49659     0.98378    -0.15608
0.38983      1.0247    -0.16431
0.27687      1.0423    -0.17253
0.16271      1.0359    -0.18076
0.052433      1.0058    -0.18898
-0.04909     0.95321    -0.19721
-0.13735     0.88054    -0.20544
-0.20845       0.791    -0.21366
-0.25921     0.68855    -0.22189
-0.28741     0.57775    -0.23011
-0.29177     0.46351    -0.23834
-0.27212     0.35088    -0.24657
-0.22933     0.24486    -0.25479
-0.16528     0.15015    -0.26302
-0.082822    0.070957    -0.27124
0.014392     0.01078    -0.27947
0.12205    -0.02771     -0.2877
0.23537   -0.042817    -0.29592
0.34933   -0.033893    -0.30413
0.45885  -0.0013559    -0.31228
0.55908    0.053446    -0.32038
0.64546     0.12857     -0.3286
0.71363     0.22186    -0.33768
0.75992     0.33066    -0.34954
0.78366     0.44809    -0.36541
0.095277    0.016519  -0.0059316
0.18707     0.04846   -0.015446
0.2773    0.098304   -0.025419
0.3559     0.16548   -0.034098
0.4184      0.2475   -0.042304
0.46209     0.34071   -0.050458
0.48522     0.44099   -0.058651
0.48681     0.54388    -0.06687
0.46683     0.64483   -0.075096
0.42616     0.73936   -0.083323
0.36659     0.82329    -0.09155
0.29078     0.89288   -0.099776
0.20207     0.94505      -0.108
0.10441      0.9775    -0.11623
0.0021111     0.98877    -0.12445
-0.10028     0.97838    -0.13268
-0.19822     0.94678    -0.14091
-0.28737     0.89538    -0.14913
-0.36379     0.82644    -0.15736
-0.42408     0.74303    -0.16558
-0.46556     0.64885    -0.17381
-0.48641     0.54807    -0.18203
-0.48569     0.44516    -0.19026
-0.46345     0.34468    -0.19849
-0.42065     0.25109    -0.20671
-0.35921     0.16853    -0.21494
-0.28184     0.10066    -0.22316
-0.19198    0.050502    -0.23139
-0.093608    0.020269    -0.23962
0.0089164    0.011304    -0.24784
0.11105    0.024003    -0.25607
0.20825    0.057796    -0.26431
0.29622     0.11116    -0.27255
0.37106     0.18171    -0.28076
0.42941     0.26634    -0.28883
0.46848     0.36153    -0.29659
0.48581     0.46376    -0.30404
0.47945     0.56978    -0.31262
0.45069      0.6755    -0.32667
0.082692    0.065472     0.01707
0.16145     0.14527    0.015276
0.22603     0.24018   0.0067134
0.27031     0.34616  -0.0021014
0.2913     0.45879   -0.010559
0.28804     0.57313   -0.018823
0.26083     0.68417   -0.027036
0.21095     0.78704    -0.03525
0.14063     0.87718   -0.043471
0.052995     0.95061   -0.051696
-0.048071      1.0041   -0.059922
-0.15809      1.0352   -0.068149
-0.27218      1.0425   -0.076374
-0.38529      1.0259     -0.0846
-0.4924     0.98589   -0.092826
-0.58876     0.92437    -0.10105
-0.67011     0.84403    -0.10928
-0.73283     0.74844     -0.1175
-0.77415     0.64184    -0.12573
-0.79223     0.52895    -0.13396
-0.78627     0.41477    -0.14218
-0.75654     0.30438    -0.15041
-0.70435     0.20265    -0.15863
-0.63202     0.11411    -0.16686
-0.54275    0.042676    -0.17508
-0.44051  -0.0084847    -0.18331
-0.32982   -0.037103    -0.19154
-0.21559   -0.041909    -0.19976
-0.10288   -0.022691    -0.20799
0.0032982    0.019699    -0.21621
0.098254    0.083382    -0.22444
0.17777     0.16553    -0.23268
0.23834     0.26248    -0.24091
0.27725      0.3699     -0.2491
0.29272     0.48302    -0.25716
0.28378     0.59692    -0.26501
0.25011     0.70698    -0.27288
0.19203     0.80949     -0.2822
0.11166     0.90325    -0.29807
0.026154    0.098373   -0.032153
0.041641     0.20887   -0.047096
0.037582     0.32406   -0.057069
0.0099308     0.43575     -0.0657
-0.040256     0.53873   -0.073918
-0.11086     0.62869   -0.082088
-0.19875     0.70178   -0.090283
-0.30001     0.75484   -0.098499
-0.41014     0.78552    -0.10672
-0.52426     0.79246    -0.11495
-0.63731     0.77535    -0.12318
-0.74426     0.73496     -0.1314
-0.84039     0.67307    -0.13963
-0.92143     0.59242    -0.14785
-0.98378     0.49659    -0.15608
-1.0247     0.38983    -0.16431
-1.0423     0.27687    -0.17253
-1.0359     0.16271    -0.18076
-1.0058    0.052433    -0.18898
-0.95321    -0.04909    -0.19721
-0.88054    -0.13735    -0.20544
-0.791    -0.20845    -0.21366
-0.68855    -0.25921    -0.22189
-0.57775    -0.28741    -0.23011
-0.46351    -0.29177    -0.23834
-0.35088    -0.27212    -0.24657
-0.24486    -0.22933    -0.25479
-0.15015    -0.16528    -0.26302
-0.070957   -0.082822    -0.27124
-0.01078    0.014392    -0.27947
0.02771     0.12205     -0.2877
0.042817     0.23537    -0.29592
0.033893     0.34933    -0.30413
0.0013559     0.45885    -0.31228
-0.053446     0.55908    -0.32038
-0.12857     0.64546     -0.3286
-0.22186     0.71363    -0.33768
-0.33066     0.75992    -0.34954
-0.44809     0.78366    -0.36541
-0.016519    0.095277  -0.0059316
-0.04846     0.18707   -0.015446
-0.098304      0.2773   -0.025419
-0.16548      0.3559   -0.034098
-0.2475      0.4184   -0.042304
-0.34071     0.46209   -0.050458
-0.44099     0.48522   -0.058651
-0.54388     0.48681    -0.06687
-0.64483     0.46683   -0.075096
-0.73936     0.42616   -0.083323
-0.82329     0.36659    -0.09155
-0.89288     0.29078   -0.099776
-0.94505     0.20207      -0.108
-0.9775     0.10441    -0.11623
-0.98877   0.0021111    -0.12445
-0.97838    -0.10028    -0.13268
-0.94678    -0.19822    -0.14091
-0.89538    -0.28737    -0.14913
-0.82644    -0.36379    -0.15736
-0.74303    -0.42408    -0.16558
-0.64885    -0.46556    -0.17381
-0.54807    -0.48641    -0.18203
-0.44516    -0.48569    -0.19026
-0.34468    -0.46345    -0.19849
-0.25109    -0.42065    -0.20671
-0.16853    -0.35921    -0.21494
-0.10066    -0.28184    -0.22316
-0.050502    -0.19198    -0.23139
-0.020269   -0.093608    -0.23962
-0.011304   0.0089164    -0.24784
-0.024003     0.11105    -0.25607
-0.057796     0.20825    -0.26431
-0.11116     0.29622    -0.27255
-0.18171     0.37106    -0.28076
-0.26634     0.42941    -0.28883
-0.36153     0.46848    -0.29659
-0.46376     0.48581    -0.30404
-0.56978     0.47945    -0.31262
-0.6755     0.45069    -0.32667
-0.065472    0.082692     0.01707
-0.14527     0.16145    0.015276
-0.24018     0.22603   0.0067134
-0.34616     0.27031  -0.0021014
-0.45879      0.2913   -0.010559
-0.57313     0.28804   -0.018823
-0.68417     0.26083   -0.027036
-0.78704     0.21095    -0.03525
-0.87718     0.14063   -0.043471
-0.95061    0.052995   -0.051696
-1.0041   -0.048071   -0.059922
-1.0352    -0.15809   -0.068149
-1.0425    -0.27218   -0.076374
-1.0259    -0.38529     -0.0846
-0.98589     -0.4924   -0.092826
-0.92437    -0.58876    -0.10105
-0.84403    -0.67011    -0.10928
-0.74844    -0.73283     -0.1175
-0.64184    -0.77415    -0.12573
-0.52895    -0.79223    -0.13396
-0.41477    -0.78627    -0.14218
-0.30438    -0.75654    -0.15041
-0.20265    -0.70435    -0.15863
-0.11411    -0.63202    -0.16686
-0.042676    -0.54275    -0.17508
0.0084847    -0.44051    -0.18331
0.037103    -0.32982    -0.19154
0.041909    -0.21559    -0.19976
0.022691    -0.10288    -0.20799
-0.019699   0.0032982    -0.21621
-0.083382    0.098254    -0.22444
-0.16553     0.17777    -0.23268
-0.26248     0.23834    -0.24091
-0.3699     0.27725     -0.2491
-0.48302     0.29272    -0.25716
-0.59692     0.28378    -0.26501
-0.70698     0.25011    -0.27288
-0.80949     0.19203     -0.2822
-0.90325     0.11166    -0.29807
-0.098373    0.026154   -0.032153
-0.20887    0.041641   -0.047096
-0.32406    0.037582   -0.057069
-0.43575   0.0099308     -0.0657
-0.53873   -0.040256   -0.073918
-0.62869    -0.11086   -0.082088
-0.70178    -0.19875   -0.090283
-0.75484    -0.30001   -0.098499
-0.78552    -0.41014    -0.10672
-0.79246    -0.52426    -0.11495
-0.77535    -0.63731    -0.12318
-0.73496    -0.74426     -0.1314
-0.67307    -0.84039    -0.13963
-0.59242    -0.92143    -0.14785
-0.49659    -0.98378    -0.15608
-0.38983     -1.0247    -0.16431
-0.27687     -1.0423    -0.17253
-0.16271     -1.0359    -0.18076
-0.052433     -1.0058    -0.18898
0.04909    -0.95321    -0.19721
0.13735    -0.88054    -0.20544
0.20845      -0.791    -0.21366
0.25921    -0.68855    -0.22189
0.28741    -0.57775    -0.23011
0.29177    -0.46351    -0.23834
0.27212    -0.35088    -0.24657
0.22933    -0.24486    -0.25479
0.16528    -0.15015    -0.26302
0.082822   -0.070957    -0.27124
-0.014392    -0.01078    -0.27947
-0.12205     0.02771     -0.2877
-0.23537    0.042817    -0.29592
-0.34933    0.033893    -0.30413
-0.45885   0.0013559    -0.31228
-0.55908   -0.053446    -0.32038
-0.64546    -0.12857     -0.3286
-0.71363    -0.22186    -0.33768
-0.75992    -0.33066    -0.34954
-0.78366    -0.44809    -0.36541
-0.095277   -0.016519  -0.0059316
-0.18707    -0.04846   -0.015446
-0.2773   -0.098304   -0.025419
-0.3559    -0.16548   -0.034098
-0.4184     -0.2475   -0.042304
-0.46209    -0.34071   -0.050458
-0.48522    -0.44099   -0.058651
-0.48681    -0.54388    -0.06687
-0.46683    -0.64483   -0.075096
-0.42616    -0.73936   -0.083323
-0.36659    -0.82329    -0.09155
-0.29078    -0.89288   -0.099776
-0.20207    -0.94505      -0.108
-0.10441     -0.9775    -0.11623
-0.0021111    -0.98877    -0.12445
0.10028    -0.97838    -0.13268
0.19822    -0.94678    -0.14091
0.28737    -0.89538    -0.14913
0.36379    -0.82644    -0.15736
0.42408    -0.74303    -0.16558
0.46556    -0.64885    -0.17381
0.48641    -0.54807    -0.18203
0.48569    -0.44516    -0.19026
0.46345    -0.34468    -0.19849
0.42065    -0.25109    -0.20671
0.35921    -0.16853    -0.21494
0.28184    -0.10066    -0.22316
0.19198   -0.050502    -0.23139
0.093608   -0.020269    -0.23962
-0.0089164   -0.011304    -0.24784
-0.11105   -0.024003    -0.25607
-0.20825   -0.057796    -0.26431
-0.29622    -0.11116    -0.27255
-0.37106    -0.18171    -0.28076
-0.42941    -0.26634    -0.28883
-0.46848    -0.36153    -0.29659
-0.48581    -0.46376    -0.30404
-0.47945    -0.56978    -0.31262
-0.45069     -0.6755    -0.32667
-0.082692   -0.065472     0.01707
-0.16145    -0.14527    0.015276
-0.22603    -0.24018   0.0067134
-0.27031    -0.34616  -0.0021014
-0.2913    -0.45879   -0.010559
-0.28804    -0.57313   -0.018823
-0.26083    -0.68417   -0.027036
-0.21095    -0.78704    -0.03525
-0.14063    -0.87718   -0.043471
-0.052995    -0.95061   -0.051696
0.048071     -1.0041   -0.059922
0.15809     -1.0352   -0.068149
0.27218     -1.0425   -0.076374
0.38529     -1.0259     -0.0846
0.4924    -0.98589   -0.092826
0.58876    -0.92437    -0.10105
0.67011    -0.84403    -0.10928
0.73283    -0.74844     -0.1175
0.77415    -0.64184    -0.12573
0.79223    -0.52895    -0.13396
0.78627    -0.41477    -0.14218
0.75654    -0.30438    -0.15041
0.70435    -0.20265    -0.15863
0.63202    -0.11411    -0.16686
0.54275   -0.042676    -0.17508
0.44051   0.0084847    -0.18331
0.32982    0.037103    -0.19154
0.21559    0.041909    -0.19976
0.10288    0.022691    -0.20799
-0.0032982   -0.019699    -0.21621
-0.098254   -0.083382    -0.22444
-0.17777    -0.16553    -0.23268
-0.23834    -0.26248    -0.24091
-0.27725     -0.3699     -0.2491
-0.29272    -0.48302    -0.25716
-0.28378    -0.59692    -0.26501
-0.25011    -0.70698    -0.27288
-0.19203    -0.80949     -0.2822
-0.11166    -0.90325    -0.29807
-0.026154   -0.098373   -0.032153
-0.041641    -0.20887   -0.047096
-0.037582    -0.32406   -0.057069
-0.0099308    -0.43575     -0.0657
0.040256    -0.53873   -0.073918
0.11086    -0.62869   -0.082088
0.19875    -0.70178   -0.090283
0.30001    -0.75484   -0.098499
0.41014    -0.78552    -0.10672
0.52426    -0.79246    -0.11495
0.63731    -0.77535    -0.12318
0.74426    -0.73496     -0.1314
0.84039    -0.67307    -0.13963
0.92143    -0.59242    -0.14785
0.98378    -0.49659    -0.15608
1.0247    -0.38983    -0.16431
1.0423    -0.27687    -0.17253
1.0359    -0.16271    -0.18076
1.0058   -0.052433    -0.18898
0.95321     0.04909    -0.19721
0.88054     0.13735    -0.20544
0.791     0.20845    -0.21366
0.68855     0.25921    -0.22189
0.57775     0.28741    -0.23011
0.46351     0.29177    -0.23834
0.35088     0.27212    -0.24657
0.24486     0.22933    -0.25479
0.15015     0.16528    -0.26302
0.070957    0.082822    -0.27124
0.01078   -0.014392    -0.27947
-0.02771    -0.12205     -0.2877
-0.042817    -0.23537    -0.29592
-0.033893    -0.34933    -0.30413
-0.0013559    -0.45885    -0.31228
0.053446    -0.55908    -0.32038
0.12857    -0.64546     -0.3286
0.22186    -0.71363    -0.33768
0.33066    -0.75992    -0.34954
0.44809    -0.78366    -0.36541
0.016519   -0.095277  -0.0059316
0.04846    -0.18707   -0.015446
0.098304     -0.2773   -0.025419
0.16548     -0.3559   -0.034098
0.2475     -0.4184   -0.042304
0.34071    -0.46209   -0.050458
0.44099    -0.48522   -0.058651
0.54388    -0.48681    -0.06687
0.64483    -0.46683   -0.075096
0.73936    -0.42616   -0.083323
0.82329    -0.36659    -0.09155
0.89288    -0.29078   -0.099776
0.94505    -0.20207      -0.108
0.9775    -0.10441    -0.11623
0.98877  -0.0021111    -0.12445
0.97838     0.10028    -0.13268
0.94678     0.19822    -0.14091
0.89538     0.28737    -0.14913
0.82644     0.36379    -0.15736
0.74303     0.42408    -0.16558
0.64885     0.46556    -0.17381
0.54807     0.48641    -0.18203
0.44516     0.48569    -0.19026
0.34468     0.46345    -0.19849
0.25109     0.42065    -0.20671
0.16853     0.35921    -0.21494
0.10066     0.28184    -0.22316
0.050502     0.19198    -0.23139
0.020269    0.093608    -0.23962
0.011304  -0.0089164    -0.24784
0.024003    -0.11105    -0.25607
0.057796    -0.20825    -0.26431
0.11116    -0.29622    -0.27255
0.18171    -0.37106    -0.28076
0.26634    -0.42941    -0.28883
0.36153    -0.46848    -0.29659
0.46376    -0.48581    -0.30404
0.56978    -0.47945    -0.31262
0.6755    -0.45069    -0.32667
0.065472   -0.082692     0.01707
0.14527    -0.16145    0.015276
0.24018    -0.22603   0.0067134
0.34616    -0.27031  -0.0021014
0.45879     -0.2913   -0.010559