# vtk DataFile Version 3.0
VTK Output
ASCII
DATASET UNSTRUCTURED_GRID

POINTS 1025 float
-0.5        -0.5           0
0.5        -0.5           0
0.5         0.5           0
-0.5         0.5           0
-0.5         -0.5           10
0.5         -0.5           10
0.5          0.5           10
-0.5          0.5           10
-0.25        -0.5           0
-1.3751e-12        -0.5           0
0.25        -0.5           0
0.5       -0.25           0
0.5 -1.3751e-12           0
0.5        0.25           0
0.25         0.5           0
1.3751e-12         0.5           0
-0.25         0.5           0
-0.5        0.25           0
-0.5  1.3751e-12           0
-0.5       -0.25           0
-0.25         -0.5           10
-1.37512e-12         -0.5           10
0.25         -0.5           10
0.5        -0.25           10
0.5 -1.37512e-12           10
0.5         0.25           10
0.25          0.5           10
1.37512e-12          0.5           10
-0.25          0.5           10
-0.5         0.25           10
-0.5  1.37512e-12           10
-0.5        -0.25           10
-0.5        -0.5        0.25
-0.5        -0.5         0.5
-0.5        -0.5        0.75
-0.5        -0.5           1
-0.5        -0.5        1.25
-0.5        -0.5         1.5
-0.5        -0.5        1.75
-0.5        -0.5           2
-0.5        -0.5        2.25
-0.5        -0.5         2.5
-0.5        -0.5        2.75
-0.5        -0.5           3
-0.5        -0.5        3.25
-0.5        -0.5         3.5
-0.5        -0.5        3.75
-0.5        -0.5           4
-0.5        -0.5        4.25
-0.5        -0.5         4.5
-0.5        -0.5        4.75
-0.5        -0.5           5
-0.5        -0.5        5.25
-0.5        -0.5         5.5
-0.5        -0.5        5.75
-0.5        -0.5           6
-0.5        -0.5        6.25
-0.5        -0.5         6.5
-0.5        -0.5        6.75
-0.5        -0.5           7
-0.5        -0.5        7.25
-0.5        -0.5         7.5
-0.5        -0.5        7.75
-0.5        -0.5           8
-0.5        -0.5        8.25
-0.5        -0.5         8.5
-0.5        -0.5        8.75
-0.5        -0.5           9
-0.5        -0.5        9.25
-0.5        -0.5         9.5
-0.5        -0.5        9.75
0.5        -0.5        0.25
0.5        -0.5         0.5
0.5        -0.5        0.75
0.5        -0.5           1
0.5        -0.5        1.25
0.5        -0.5         1.5
0.5        -0.5        1.75
0.5        -0.5           2
0.5        -0.5        2.25
0.5        -0.5         2.5
0.5        -0.5        2.75
0.5        -0.5           3
0.5        -0.5        3.25
0.5        -0.5         3.5
0.5        -0.5        3.75
0.5        -0.5           4
0.5        -0.5        4.25
0.5        -0.5         4.5
0.5        -0.5        4.75
0.5        -0.5           5
0.5        -0.5        5.25
0.5        -0.5         5.5
0.5        -0.5        5.75
0.5        -0.5           6
0.5        -0.5        6.25
0.5        -0.5         6.5
0.5        -0.5        6.75
0.5        -0.5           7
0.5        -0.5        7.25
0.5        -0.5         7.5
0.5        -0.5        7.75
0.5        -0.5           8
0.5        -0.5        8.25
0.5        -0.5         8.5
0.5        -0.5        8.75
0.5        -0.5           9
0.5        -0.5        9.25
0.5        -0.5         9.5
0.5        -0.5        9.75
0.5         0.5        0.25
0.5         0.5         0.5
0.5         0.5        0.75
0.5         0.5           1
0.5         0.5        1.25
0.5         0.5         1.5
0.5         0.5        1.75
0.5         0.5           2
0.5         0.5        2.25
0.5         0.5         2.5
0.5         0.5        2.75
0.5         0.5           3
0.5         0.5        3.25
0.5         0.5         3.5
0.5         0.5        3.75
0.5         0.5           4
0.5         0.5        4.25
0.5         0.5         4.5
0.5         0.5        4.75
0.5         0.5           5
0.5         0.5        5.25
0.5         0.5         5.5
0.5         0.5        5.75
0.5         0.5           6
0.5         0.5        6.25
0.5         0.5         6.5
0.5         0.5        6.75
0.5         0.5           7
0.5         0.5        7.25
0.5         0.5         7.5
0.5         0.5        7.75
0.5         0.5           8
0.5         0.5        8.25
0.5         0.5         8.5
0.5         0.5        8.75
0.5         0.5           9
0.5         0.5        9.25
0.5         0.5         9.5
0.5         0.5        9.75
-0.5         0.5        0.25
-0.5         0.5         0.5
-0.5         0.5        0.75
-0.5         0.5           1
-0.5         0.5        1.25
-0.5         0.5         1.5
-0.5         0.5        1.75
-0.5         0.5           2
-0.5         0.5        2.25
-0.5         0.5         2.5
-0.5         0.5        2.75
-0.5         0.5           3
-0.5         0.5        3.25
-0.5         0.5         3.5
-0.5         0.5        3.75
-0.5         0.5           4
-0.5         0.5        4.25
-0.5         0.5         4.5
-0.5         0.5        4.75
-0.5         0.5           5
-0.5         0.5        5.25
-0.5         0.5         5.5
-0.5         0.5        5.75
-0.5         0.5           6
-0.5         0.5        6.25
-0.5         0.5         6.5
-0.5         0.5        6.75
-0.5         0.5           7
-0.5         0.5        7.25
-0.5         0.5         7.5
-0.5         0.5        7.75
-0.5         0.5           8
-0.5         0.5        8.25
-0.5         0.5         8.5
-0.5         0.5        8.75
-0.5         0.5           9
-0.5         0.5        9.25
-0.5         0.5         9.5
-0.5         0.5        9.75
-0.25       -0.25           0
-0.25  6.8756e-13           0
-0.25        0.25           0
-6.8756e-13       -0.25           0
-3.7821e-24           0           0
6.8756e-13        0.25           0
0.25       -0.25           0
0.25 -6.8756e-13           0
0.25        0.25           0
-0.25        -0.5        0.25
-0.25        -0.5         0.5
-0.25        -0.5        0.75
-0.25        -0.5           1
-0.25        -0.5        1.25
-0.25        -0.5         1.5
-0.25        -0.5        1.75
-0.25        -0.5           2
-0.25        -0.5        2.25
-0.25        -0.5         2.5
-0.25        -0.5        2.75
-0.25        -0.5           3
-0.25        -0.5        3.25
-0.25        -0.5         3.5
-0.25        -0.5        3.75
-0.25        -0.5           4
-0.25        -0.5        4.25
-0.25        -0.5         4.5
-0.25        -0.5        4.75
-0.25        -0.5           5
-0.25        -0.5        5.25
-0.25        -0.5         5.5
-0.25        -0.5        5.75
-0.25        -0.5           6
-0.25        -0.5        6.25
-0.25        -0.5         6.5
-0.25        -0.5        6.75
-0.25        -0.5           7
-0.25        -0.5        7.25
-0.25        -0.5         7.5
-0.25        -0.5        7.75
-0.25        -0.5           8
-0.25        -0.5        8.25
-0.25        -0.5         8.5
-0.25        -0.5        8.75
-0.25        -0.5           9
-0.25        -0.5        9.25
-0.25        -0.5         9.5
-0.25        -0.5        9.75
-1.3751e-12        -0.5        0.25
-1.3751e-12        -0.5         0.5
-1.3751e-12        -0.5        0.75
-1.3751e-12        -0.5           1
-1.3751e-12        -0.5        1.25
-1.3751e-12        -0.5         1.5
-1.3751e-12        -0.5        1.75
-1.3751e-12        -0.5           2
-1.3751e-12        -0.5        2.25
-1.3751e-12        -0.5         2.5
-1.3751e-12        -0.5        2.75
-1.3751e-12        -0.5           3
-1.3751e-12        -0.5        3.25
-1.3751e-12        -0.5         3.5
-1.3751e-12        -0.5        3.75
-1.3751e-12        -0.5           4
-1.3751e-12        -0.5        4.25
-1.3751e-12        -0.5         4.5
-1.3751e-12        -0.5        4.75
-1.3751e-12        -0.5           5
-1.3751e-12        -0.5        5.25
-1.3751e-12        -0.5         5.5
-1.3751e-12        -0.5        5.75
-1.3751e-12        -0.5           6
-1.3751e-12        -0.5        6.25
-1.3751e-12        -0.5         6.5
-1.3751e-12        -0.5        6.75
-1.3751e-12        -0.5           7
-1.3751e-12        -0.5        7.25
-1.3751e-12        -0.5         7.5
-1.3751e-12        -0.5        7.75
-1.3751e-12        -0.5           8
-1.3751e-12        -0.5        8.25
-1.3751e-12        -0.5         8.5
-1.3751e-12        -0.5        8.75
-1.3751e-12        -0.5           9
-1.3751e-12        -0.5        9.25
-1.3751e-12        -0.5         9.5
-1.3751e-12        -0.5        9.75
0.25        -0.5        0.25
0.25        -0.5         0.5
0.25        -0.5        0.75
0.25        -0.5           1
0.25        -0.5        1.25
0.25        -0.5         1.5
0.25        -0.5        1.75
0.25        -0.5           2
0.25        -0.5        2.25
0.25        -0.5         2.5
0.25        -0.5        2.75
0.25        -0.5           3
0.25        -0.5        3.25
0.25        -0.5         3.5
0.25        -0.5        3.75
0.25        -0.5           4
0.25        -0.5        4.25
0.25        -0.5         4.5
0.25        -0.5        4.75
0.25        -0.5           5
0.25        -0.5        5.25
0.25        -0.5         5.5
0.25        -0.5        5.75
0.25        -0.5           6
0.25        -0.5        6.25
0.25        -0.5         6.5
0.25        -0.5        6.75
0.25        -0.5           7
0.25        -0.5        7.25
0.25        -0.5         7.5
0.25        -0.5        7.75
0.25        -0.5           8
0.25        -0.5        8.25
0.25        -0.5         8.5
0.25        -0.5        8.75
0.25        -0.5           9
0.25        -0.5        9.25
0.25        -0.5         9.5
0.25        -0.5        9.75
0.5       -0.25        0.25
0.5       -0.25         0.5
0.5       -0.25        0.75
0.5       -0.25           1
0.5       -0.25        1.25
0.5       -0.25         1.5
0.5       -0.25        1.75
0.5       -0.25           2
0.5       -0.25        2.25
0.5       -0.25         2.5
0.5       -0.25        2.75
0.5       -0.25           3
0.5       -0.25        3.25
0.5       -0.25         3.5
0.5       -0.25        3.75
0.5       -0.25           4
0.5       -0.25        4.25
[...]
POINT_DATA 1025
VECTORS displacement double
0  0  0
0  0  0
0  0  0
0  0  0
0.7706    -0.15328     -0.2953
0.15328      0.7706     -0.2953
-0.7706     0.15328     -0.2953
-0.15328     -0.7706     -0.2953
0  0  0
0  0  0
0  0  0
0  0  0
0  0  0
0  0  0
0  0  0
0  0  0
0  0  0
0  0  0
0  0  0
0  0  0
0.61627    0.077688    -0.31086
0.46194     0.30866    -0.27627
0.30761     0.53963    -0.25059
-0.077688     0.61627    -0.31086
-0.30866     0.46194    -0.27627
-0.53963     0.30761    -0.25059
-0.61627   -0.077688    -0.31086
-0.46194    -0.30866    -0.27627
-0.30761    -0.53963    -0.25059
0.077688    -0.61627    -0.31086
0.30866    -0.46194    -0.27627
0.53963    -0.30761    -0.25059
0.092977     -0.0622  -0.0023411
0.20685    -0.12685   -0.011678
0.32972    -0.16981   -0.019679
0.45756    -0.18977   -0.026845
0.58649    -0.18575   -0.033557
0.71224    -0.15786   -0.040083
0.83057    -0.10711    -0.04658
0.93743   -0.035277   -0.053087
1.0291    0.055132   -0.059604
1.1024     0.16098   -0.066126
1.1549     0.27859   -0.072649
1.1846     0.40388   -0.079171
1.1905     0.53251   -0.085694
1.1725     0.66001   -0.092216
1.1312     0.78195   -0.098739
1.0679     0.89412    -0.10526
0.98497     0.99261    -0.11178
0.8852       1.074    -0.11831
0.77206      1.1355    -0.12483
0.64948      1.1749    -0.13135
0.52172      1.1909    -0.13787
0.3932       1.183     -0.1444
0.26839      1.1513    -0.15092
0.15161      1.0971    -0.15744
0.046924      1.0221    -0.16396
-0.042044     0.92901    -0.17048
-0.11221     0.82104    -0.17701
-0.16112     0.70193    -0.18353
-0.1871     0.57581    -0.19005
-0.18924     0.44706    -0.19658
-0.16747     0.32015     -0.2031
-0.12255     0.19948    -0.20963
-0.05604    0.089249    -0.21613
0.029732  -0.0067089    -0.22257
0.13185   -0.085016    -0.22889
0.24704    -0.14282    -0.23521
0.37203    -0.17785    -0.24238
0.50364    -0.18887    -0.25288
0.63816    -0.17749     -0.2699
0.0622    0.092977  -0.0023411
0.12685     0.20685   -0.011678
0.16981     0.32972   -0.019679
0.18977     0.45756   -0.026845
0.18575     0.58649   -0.033557
0.15786     0.71224   -0.040083
0.10711     0.83057    -0.04658
0.035277     0.93743   -0.053087
-0.055132      1.0291   -0.059604
-0.16098      1.1024   -0.066126
-0.27859      1.1549   -0.072649
-0.40388      1.1846   -0.079171
-0.53251      1.1905   -0.085694
-0.66001      1.1725   -0.092216
-0.78195      1.1312   -0.098739
-0.89412      1.0679    -0.10526
-0.99261     0.98497    -0.11178
-1.074      0.8852    -0.11831
-1.1355     0.77206    -0.12483
-1.1749     0.64948    -0.13135
-1.1909     0.52172    -0.13787
-1.183      0.3932     -0.1444
-1.1513     0.26839    -0.15092
-1.0971     0.15161    -0.15744
-1.0221    0.046924    -0.16396
-0.92901   -0.042044    -0.17048
-0.82104    -0.11221    -0.17701
-0.70193    -0.16112    -0.18353
-0.57581     -0.1871    -0.19005
-0.44706    -0.18924    -0.19658
-0.32015    -0.16747     -0.2031
-0.19948    -0.12255    -0.20963
-0.089249    -0.05604    -0.21613
0.0067089    0.029732    -0.22257
0.085016     0.13185    -0.22889
0.14282     0.24704    -0.23521
0.17785     0.37203    -0.24238
0.18887     0.50364    -0.25288
0.17749     0.63816     -0.2699
-0.092977      0.0622  -0.0023411
-0.20685     0.12685   -0.011678
-0.32972     0.16981   -0.019679
-0.45756     0.18977   -0.026845
-0.58649     0.18575   -0.033557
-0.71224     0.15786   -0.040083
-0.83057     0.10711    -0.04658
-0.93743    0.035277   -0.053087
-1.0291   -0.055132   -0.059604
-1.1024    -0.16098   -0.066126
-1.1549    -0.27859   -0.072649
-1.1846    -0.40388   -0.079171
-1.1905    -0.53251   -0.085694
-1.1725    -0.66001   -0.092216
-1.1312    -0.78195   -0.098739
-1.0679    -0.89412    -0.10526
-0.98497    -0.99261    -0.11178
-0.8852      -1.074    -0.11831
-0.77206     -1.1355    -0.12483
-0.64948     -1.1749    -0.13135
-0.52172     -1.1909    -0.13787
-0.3932      -1.183     -0.1444
-0.26839     -1.1513    -0.15092
-0.15161     -1.0971    -0.15744
-0.046924     -1.0221    -0.16396
0.042044    -0.92901    -0.17048
0.11221    -0.82104    -0.17701
0.16112    -0.70193    -0.18353
0.1871    -0.57581    -0.19005
0.18924    -0.44706    -0.19658
0.16747    -0.32015     -0.2031
0.12255    -0.19948    -0.20963
0.05604   -0.089249    -0.21613
-0.029732   0.0067089    -0.22257
-0.13185    0.085016    -0.22889
-0.24704     0.14282    -0.23521
-0.37203     0.17785    -0.24238
-0.50364     0.18887    -0.25288
-0.63816     0.17749     -0.2699
-0.0622   -0.092977  -0.0023411
-0.12685    -0.20685   -0.011678
-0.16981    -0.32972   -0.019679
-0.18977    -0.45756   -0.026845
-0.18575    -0.58649   -0.033557
-0.15786    -0.71224   -0.040083
-0.10711    -0.83057    -0.04658
-0.035277    -0.93743   -0.053087
0.055132     -1.0291   -0.059604
0.16098     -1.1024   -0.066126
0.27859     -1.1549   -0.072649
0.40388     -1.1846   -0.079171
0.53251     -1.1905   -0.085694
0.66001     -1.1725   -0.092216
0.78195     -1.1312   -0.098739
0.89412     -1.0679    -0.10526
0.99261    -0.98497    -0.11178
1.074     -0.8852    -0.11831
1.1355    -0.77206    -0.12483
1.1749    -0.64948    -0.13135
1.1909    -0.52172    -0.13787
1.183     -0.3932     -0.1444
1.1513    -0.26839    -0.15092
1.0971    -0.15161    -0.15744
1.0221   -0.046924    -0.16396
0.92901    0.042044    -0.17048
0.82104     0.11221    -0.17701
0.70193     0.16112    -0.18353
0.57581      0.1871    -0.19005
0.44706     0.18924    -0.19658
0.32015     0.16747     -0.2031
0.19948     0.12255    -0.20963
0.089249     0.05604    -0.21613
-0.0067089   -0.029732    -0.22257
-0.085016    -0.13185    -0.22889
-0.14282    -0.24704    -0.23521
-0.17785    -0.37203    -0.24238
-0.18887    -0.50364    -0.25288
-0.17749    -0.63816     -0.2699
0  0  0
0  0  0
0  0  0
0  0  0
0  0  0
0  0  0
0  0  0
0  0  0
0  0  0
0.087826   -0.025428   -0.028068
0.18576   -0.042826   -0.040407
0.28823   -0.044953   -0.048221
0.38917     -0.0283   -0.055012
0.48494   0.0066362   -0.061526
0.57242    0.058733   -0.068013
0.64867     0.12617   -0.074516
0.71108     0.20658   -0.081032
0.7575     0.29718   -0.087553
0.78631     0.39482   -0.094076
0.79651     0.49611     -0.1006
0.78775     0.59754    -0.10712
0.76033     0.69558    -0.11364
0.71521     0.78683    -0.12017
0.65394     0.86813    -0.12669
0.57866     0.93666    -0.13321
0.49197     0.99004    -0.13973
0.39689      1.0264    -0.14626
0.29671      1.0445    -0.15278
0.19492      1.0437     -0.1593
0.095029      1.0241    -0.16582
0.00051911     0.98626    -0.17234
-0.085335     0.93155    -0.17887
-0.15955     0.86187    -0.18539
-0.21956     0.77964    -0.19191
-0.26328      0.6877    -0.19843
-0.28918     0.58925    -0.20496
-0.29638     0.48771    -0.21148
-0.28462     0.38659      -0.218
-0.25431      0.2894    -0.22452
-0.20651     0.19952    -0.23105
-0.14287     0.12007    -0.23757
-0.065625     0.05379    -0.24408
0.022542   0.0029868    -0.25056
0.11862   -0.030528      -0.257
0.21946   -0.045322    -0.26352
0.32197    -0.04013     -0.2706
0.42317   -0.014265    -0.27959
0.51908     0.02957    -0.29169
0.085903    0.013293  -0.0049472
0.16847     0.03864   -0.012444
0.25088    0.078298   -0.020248
0.32518     0.13222   -0.027081
0.38799     0.19893   -0.033585
0.43716     0.27611   -0.040061
0.47111     0.36106   -0.046563
0.4887     0.45084   -0.053081
0.48934     0.54232   -0.059603
0.473     0.63234   -0.066126
0.44025     0.71777   -0.072649
0.39222     0.79564   -0.079172
0.33059     0.86325   -0.085694
0.25748     0.91826   -0.092216
0.17545     0.95876   -0.098739
0.08732     0.98334    -0.10526
-0.0038356     0.99115    -0.11178
-0.094858     0.98191    -0.11831
-0.18259     0.95596    -0.12483
-0.26398     0.91419    -0.13135
-0.33622     0.85804    -0.13787
-0.39679     0.78948     -0.1444
-0.44359     0.71087    -0.15092
-0.47501     0.62494    -0.15744
-0.48994     0.53467    -0.16396
-0.48787     0.44321    -0.17048
-0.46887     0.35371    -0.17701
-0.43361     0.26929    -0.18353
-0.3833     0.19288    -0.19005
-0.31969     0.12712    -0.19657
-0.24499    0.074299     -0.2031
-0.16179    0.036244    -0.20963
-0.07299    0.014268    -0.21616
0.018316   0.0091273    -0.22267
0.10896    0.021035     -0.2291
0.19583      0.0498    -0.23533
0.27594    0.095085    -0.24133
0.34671     0.15643    -0.24801
0.40675     0.23122    -0.25855
0.075356     0.05688    0.015813
0.14826     0.12537    0.014859
0.21042     0.20638   0.0080731
0.25719     0.29719   0.0011216
0.28623     0.39493  -0.0055592
0.2965     0.49625   -0.012106
0.28773     0.59768    -0.01862
0.26029      0.6957   -0.025135
0.21514     0.78694   -0.031655
0.15385     0.86823   -0.038177
0.078554     0.93674   -0.044699
-0.0081438     0.99009   -0.051222
-0.10323      1.0264   -0.057744
-0.20341      1.0445   -0.064266
-0.30521      1.0437   -0.070789
-0.4051      1.0241   -0.077311
-0.4996      0.9862   -0.083833
-0.58544     0.93147   -0.090356
-0.65964     0.86178   -0.096878
-0.71963     0.77953     -0.1034
-0.76332     0.68758    -0.10992
-0.78921     0.58913    -0.11645
-0.79638     0.48758    -0.12297
-0.7846     0.38646    -0.12949
-0.75427     0.28928    -0.13601
-0.70644     0.19942    -0.14253
-0.64277     0.11998    -0.14906
-0.56548    0.053728    -0.15558
-0.47724   0.0029609     -0.1621
-0.38112   -0.030561    -0.16862
-0.28044   -0.045675    -0.17515
-0.17871   -0.041861    -0.18168
-0.079463   -0.019259     -0.1882
0.013845    0.021342     -0.1947
0.097933    0.078567    -0.20111
0.1698     0.15061    -0.20739
0.22685      0.2355     -0.2137
0.26732     0.33133    -0.22103
0.29183     0.43646    -0.23297
0.025428    0.087826   -0.028068
0.042826     0.18576   -0.040407
0.044953     0.28823   -0.048221
0.0283     0.38917   -0.055012
-0.0066362     0.48494   -0.061526
-0.058733     0.57242   -0.068013
-0.12617     0.64867   -0.074516
-0.20658     0.71108   -0.081032
-0.29718      0.7575   -0.087553
-0.39482     0.78631   -0.094076
-0.49611     0.79651     -0.1006
-0.59754     0.78775    -0.10712
-0.69558     0.76033    -0.11364
-0.78683     0.71521    -0.12017
-0.86813     0.65394    -0.12669
-0.93666     0.57866    -0.13321
-0.99004     0.49197    -0.13973
-1.0264     0.39689    -0.14626
-1.0445     0.29671    -0.15278
-1.0437     0.19492     -0.1593
-1.0241    0.095029    -0.16582
-0.98626  0.00051911    -0.17234
-0.93155   -0.085335    -0.17887
-0.86187    -0.15955    -0.18539
-0.77964    -0.21956    -0.19191
-0.6877    -0.26328    -0.19843
-0.58925    -0.28918    -0.20496
-0.48771    -0.29638    -0.21148
-0.38659    -0.28462      -0.218
-0.2894    -0.25431    -0.22452
-0.19952    -0.20651    -0.23105
-0.12007    -0.14287    -0.23757
-0.05379   -0.065625    -0.24408
-0.0029868    0.022542    -0.25056
0.030528     0.11862      -0.257
0.045322     0.21946    -0.26352
0.04013     0.32197     -0.2706
0.014265     0.42317    -0.27959
-0.02957     0.51908    -0.29169
-0.013293    0.085903  -0.0049472
-0.03864     0.16847   -0.012444
-0.078298     0.25088   -0.020248
-0.13222     0.32518   -0.027081
-0.19893     0.38799   -0.033585
-0.27611     0.43716   -0.040061
-0.36106     0.47111   -0.046563
-0.45084      0.4887   -0.053081
-0.54232     0.48934   -0.059603
-0.63234       0.473   -0.066126
-0.71777     0.44025   -0.072649
-0.79564     0.39222   -0.079172
-0.86325     0.33059   -0.085694
-0.91826     0.25748   -0.092216
-0.95876     0.17545   -0.098739
-0.98334     0.08732    -0.10526
-0.99115  -0.0038356    -0.11178
-0.98191   -0.094858    -0.11831
-0.95596    -0.18259    -0.12483
-0.91419    -0.26398    -0.13135
-0.85804    -0.33622    -0.13787
-0.78948    -0.39679     -0.1444
-0.71087    -0.44359    -0.15092
-0.62494    -0.47501    -0.15744
-0.53467    -0.48994    -0.16396
-0.44321    -0.48787    -0.17048
-0.35371    -0.46887    -0.17701
-0.26929    -0.43361    -0.18353
-0.19288     -0.3833    -0.19005
-0.12712    -0.31969    -0.19657
-0.074299    -0.24499     -0.2031
-0.036244    -0.16179    -0.20963
-0.014268    -0.07299    -0.21616
-0.0091273    0.018316    -0.22267
-0.021035     0.10896     -0.2291
-0.0498     0.19583    -0.23533
-0.095085     0.27594    -0.24133
-0.15643     0.34671    -0.24801
-0.23122     0.40675    -0.25855
-0.05688    0.075356    0.015813
-0.12537     0.14826    0.014859
-0.20638     0.21042   0.0080731
-0.29719     0.25719   0.0011216
-0.39493     0.28623  -0.0055592
-0.49625      0.2965   -0.012106
-0.59768     0.28773    -0.01862
-0.6957     0.26029   -0.025135
-0.78694     0.21514   -0.031655
-0.86823     0.15385   -0.038177
-0.93674    0.078554   -0.044699
-0.99009  -0.0081438   -0.051222
-1.0264    -0.10323   -0.057744
-1.0445    -0.20341   -0.064266
-1.0437    -0.30521   -0.070789
-1.0241     -0.4051   -0.077311
-0.9862     -0.4996   -0.083833
-0.93147    -0.58544   -0.090356
-0.86178    -0.65964   -0.096878
-0.77953    -0.71963     -0.1034
-0.68758    -0.76332    -0.10992
-0.58913    -0.78921    -0.11645
-0.48758    -0.79638    -0.12297
-0.38646     -0.7846    -0.12949
-0.28928    -0.75427    -0.13601
-0.19942    -0.70644    -0.14253
-0.11998    -0.64277    -0.14906
-0.053728    -0.56548    -0.15558
-0.0029609    -0.47724     -0.1621
0.030561    -0.38112    -0.16862
0.045675    -0.28044    -0.17515
0.041861    -0.17871    -0.18168
0.019259   -0.079463     -0.1882
-0.021342    0.013845     -0.1947
-0.078567    0.097933    -0.20111
-0.15061      0.1698    -0.20739
-0.2355     0.22685     -0.2137
-0.33133     0.26732    -0.22103
-0.43646     0.29183    -0.23297
-0.087826    0.025428   -0.028068
-0.18576    0.042826   -0.040407
-0.28823    0.044953   -0.048221
-0.38917      0.0283   -0.055012
-0.48494  -0.0066362   -0.061526
-0.57242   -0.058733   -0.068013
-0.64867    -0.12617   -0.074516
-0.71108    -0.20658   -0.081032
-0.7575    -0.29718   -0.087553
-0.78631    -0.39482   -0.094076
-0.79651    -0.49611     -0.1006
-0.78775    -0.59754    -0.10712
-0.76033    -0.69558    -0.11364
-0.71521    -0.78683    -0.12017
-0.65394    -0.86813    -0.12669
-0.57866    -0.93666    -0.13321
-0.49197    -0.99004    -0.13973
-0.39689     -1.0264    -0.14626
-0.29671     -1.0445    -0.15278
-0.19492     -1.0437     -0.1593
-0.095029     -1.0241    -0.16582
-0.00051911    -0.98626    -0.17234
0.085335    -0.93155    -0.17887
0.15955    -0.86187    -0.18539
0.21956    -0.77964    -0.19191
0.26328     -0.6877    -0.19843
0.28918    -0.58925    -0.20496
0.29638    -0.48771    -0.21148
0.28462    -0.38659      -0.218
0.25431     -0.2894    -0.22452
0.20651    -0.19952    -0.23105
0.14287    -0.12007    -0.23757
0.065625    -0.05379    -0.24408
-0.022542  -0.0029868    -0.25056
-0.11862    0.030528      -0.257
-0.21946    0.045322    -0.26352
-0.32197     0.04013     -0.2706
-0.42317    0.014265    -0.27959
-0.51908    -0.02957    -0.29169
-0.085903   -0.013293  -0.0049472
-0.16847    -0.03864   -0.012444
-0.25088   -0.078298   -0.020248
-0.32518    -0.13222   -0.027081
-0.38799    -0.19893   -0.033585
-0.43716    -0.27611   -0.040061
-0.47111    -0.36106   -0.046563
-0.4887    -0.45084   -0.053081
-0.48934    -0.54232   -0.059603
-0.473    -0.63234   -0.066126
-0.44025    -0.71777   -0.072649
-0.39222    -0.79564   -0.079172
-0.33059    -0.86325   -0.085694
-0.25748    -0.91826   -0.092216
-0.17545    -0.95876   -0.098739
-0.08732    -0.98334    -0.10526
0.0038356    -0.99115    -0.11178
0.094858    -0.98191    -0.11831
0.18259    -0.95596    -0.12483
0.26398    -0.91419    -0.13135
0.33622    -0.85804    -0.13787
0.39679    -0.78948     -0.1444
0.44359    -0.71087    -0.15092
0.47501    -0.62494    -0.15744
0.48994    -0.53467    -0.16396
0.48787    -0.44321    -0.17048
0.46887    -0.35371    -0.17701
0.43361    -0.26929    -0.18353
0.3833    -0.19288    -0.19005
0.31969    -0.12712    -0.19657
0.24499   -0.074299     -0.2031
0.16179   -0.036244    -0.20963
0.07299   -0.014268    -0.21616
-0.018316  -0.0091273    -0.22267
-0.10896   -0.021035     -0.2291
-0.19583     -0.0498    -0.23533
-0.27594   -0.095085    -0.24133
-0.34671    -0.15643    -0.24801
-0.40675    -0.23122    -0.25855
-0.075356    -0.05688    0.015813
-0.14826    -0.12537    0.014859
-0.21042    -0.20638   0.0080731
-0.25719    -0.29719   0.0011216
-0.28623    -0.39493  -0.0055592
-0.2965    -0.49625   -0.012106
-0.28773    -0.59768    -0.01862
-0.26029     -0.6957   -0.025135
-0.21514    -0.78694   -0.031655
-0.15385    -0.86823   -0.038177
-0.078554    -0.93674   -0.044699
0.0081438    -0.99009   -0.051222
0.10323     -1.0264   -0.057744
0.20341     -1.0445   -0.064266
0.30521     -1.0437   -0.070789
0.4051     -1.0241   -0.077311
0.4996     -0.9862   -0.083833
0.58544    -0.93147   -0.090356
0.65964    -0.86178   -0.096878
0.71963    -0.77953     -0.1034
0.76332    -0.68758    -0.10992
0.78921    -0.58913    -0.11645
0.79638    -0.48758    -0.12297
0.7846    -0.38646    -0.12949
0.75427    -0.28928    -0.13601
0.70644    -0.19942    -0.14253
0.64277    -0.11998    -0.14906
0.56548   -0.053728    -0.15558
0.47724  -0.0029609     -0.1621
0.38112    0.030561    -0.16862
0.28044    0.045675    -0.17515
0.17871    0.041861    -0.18168
0.079463    0.019259     -0.1882
-0.013845   -0.021342     -0.1947
-0.097933   -0.078567    -0.20111
-0.1698    -0.15061    -0.20739
-0.22685     -0.2355     -0.2137
-0.26732    -0.33133    -0.22103
-0.29183    -0.43646    -0.23297
-0.025428   -0.087826   -0.028068
-0.042826    -0.18576   -0.040407
-0.044953    -0.28823   -0.048221
-0.0283    -0.38917   -0.055012
0.0066362    -0.48494   -0.061526
0.058733    -0.57242   -0.068013
0.12617    -0.64867   -0.074516
0.20658    -0.71108   -0.081032
0.29718     -0.7575   -0.087553
0.39482    -0.78631   -0.094076
0.49611    -0.79651     -0.1006
0.59754    -0.78775    -0.10712
0.69558    -0.76033    -0.11364
0.78683    -0.71521    -0.12017
0.86813    -0.65394    -0.12669
0.93666    -0.57866    -0.13321
0.99004    -0.49197    -0.13973
1.0264    -0.39689    -0.14626
1.0445    -0.29671    -0.15278
1.0437    -0.19492     -0.1593
1.0241   -0.095029    -0.16582
0.98626 -0.00051911    -0.17234
0.93155    0.085335    -0.17887
0.86187     0.15955    -0.18539
0.77964     0.21956    -0.19191
0.6877     0.26328    -0.19843
0.58925     0.28918    -0.20496
0.48771     0.29638    -0.21148
0.38659     0.28462      -0.218
0.2894     0.25431    -0.22452
0.19952     0.20651    -0.23105
0.12007     0.14287    -0.23757
0.05379    0.065625    -0.24408
0.0029868   -0.022542    -0.25056
-0.030528    -0.11862      -0.257
-0.045322    -0.21946    -0.26352
-0.04013    -0.32197     -0.2706
-0.014265    -0.42317    -0.27959
0.02957    -0.51908    -0.29169
0.013293   -0.085903  -0.0049472
0.03864    -0.16847   -0.012444
0.078298    -0.25088   -0.020248
0.13222    -0.32518   -0.027081
0.19893    -0.38799   -0.033585
0.27611    -0.43716   -0.040061
0.36106    -0.47111   -0.046563
0.45084     -0.4887   -0.053081
0.54232    -0.48934   -0.059603
0.63234      -0.473   -0.066126
0.71777    -0.44025   -0.072649
0.79564    -0.39222   -0.079172
0.86325    -0.33059   -0.085694
0.91826    -0.25748   -0.092216
0.95876    -0.17545   -0.098739
0.98334    -0.08732    -0.10526
0.99115   0.0038356    -0.11178
0.98191    0.094858    -0.11831
0.95596     0.18259    -0.12483
0.91419     0.26398    -0.13135
0.85804     0.33622    -0.13787
0.78948     0.39679     -0.1444
0.71087     0.44359    -0.15092
0.62494     0.47501    -0.15744
0.53467     0.48994    -0.16396
0.44321     0.48787    -0.17048
0.35371     0.46887    -0.17701
0.26929     0.43361    -0.18353
0.19288      0.3833    -0.19005
0.12712     0.31969    -0.19657
0.074299     0.24499     -0.2031
0.036244     0.16179    -0.20963
0.014268     0.07299    -0.21616
0.0091273   -0.018316    -0.22267
0.021035    -0.10896     -0.2291
0.0498    -0.19583    -0.23533
0.095085    -0.27594    -0.24133
0.15643    -0.34671    -0.24801
0.23122    -0.40675    -0.25855
0.05688   -0.075356    0.015813
0.12537    -0.14826    0.014859
0.20638    -0.21042   0.0080731
0.29719    -0.25719   0.0011216
0.39493    -0.28623  -0.0055592