# vtk DataFile Version 3.0
VTK Output
ASCII
DATASET UNSTRUCTURED_GRID

POINTS 1025 float
-0.5        -0.5           0
0.5        -0.5           0
0.5         0.5           0
-0.5         0.5           0
-0.5         -0.5           10
0.5         -0.5           10
0.5          0.5           10
-0.5          0.5           10
-0.25        -0.5           0
-1.3751e-12        -0.5           0
0.25        -0.5           0
0.5       -0.25           0
0.5 -1.3751e-12           0
0.5        0.25           0
0.25         0.5           0
1.3751e-12         0.5           0
-0.25         0.5           0
-0.5        0.25           0
-0.5  1.3751e-12           0
-0.5       -0.25           0
-0.25         -0.5           10
-1.37512e-12         -0.5           10
0.25         -0.5           10
0.5        -0.25           10
0.5 -1.37512e-12           10
0.5         0.25           10
0.25          0.5           10
1.37512e-12          0.5           10
-0.25          0.5           10
-0.5         0.25           10
-0.5  1.37512e-12           10
-0.5        -0.25           10
-0.5        -0.5        0.25
-0.5        -0.5         0.5
-0.5        -0.5        0.75
-0.5        -0.5           1
-0.5        -0.5        1.25
-0.5        -0.5         1.5
-0.5        -0.5        1.75
-0.5        -0.5           2
-0.5        -0.5        2.25
-0.5        -0.5         2.5
-0.5        -0.5        2.75
-0.5        -0.5           3
-0.5        -0.5        3.25
-0.5        -0.5         3.5
-0.5        -0.5        3.75
-0.5        -0.5           4
-0.5        -0.5        4.25
-0.5        -0.5         4.5
-0.5        -0.5        4.75
-0.5        -0.5           5
-0.5        -0.5        5.25
-0.5        -0.5         5.5
-0.5        -0.5        5.75
-0.5        -0.5           6
-0.5        -0.5        6.25
-0.5        -0.5         6.5
-0.5        -0.5        6.75
-0.5        -0.5           7
-0.5        -0.5        7.25
-0.5        -0.5         7.5
-0.5        -0.5        7.75
-0.5        -0.5           8
-0.5        -0.5        8.25
-0.5        -0.5         8.5
-0.5        -0.5        8.75
-0.5        -0.5           9
-0.5        -0.5        9.25
-0.5        -0.5         9.5
-0.5        -0.5        9.75
0.5        -0.5        0.25
0.5        -0.5         0.5
0.5        -0.5        0.75
0.5        -0.5           1
0.5        -0.5        1.25
0.5        -0.5         1.5
0.5        -0.5        1.75
0.5        -0.5           2
0.5        -0.5        2.25
0.5        -0.5         2.5
0.5        -0.5        2.75
0.5        -0.5           3
0.5        -0.5        3.25
0.5        -0.5         3.5
0.5        -0.5        3.75
0.5        -0.5           4
0.5        -0.5        4.25
0.5        -0.5         4.5
0.5        -0.5        4.75
0.5        -0.5           5
0.5        -0.5        5.25
0.5        -0.5         5.5
0.5        -0.5        5.75
0.5        -0.5           6
0.5        -0.5        6.25
0.5        -0.5         6.5
0.5        -0.5        6.75
0.5        -0.5           7
0.5        -0.5        7.25
0.5        -0.5         7.5
0.5        -0.5        7.75
0.5        -0.5           8
0.5        -0.5        8.25
0.5        -0.5         8.5
0.5        -0.5        8.75
0.5        -0.5           9
0.5        -0.5        9.25
0.5        -0.5         9.5
0.5        -0.5        9.75
0.5         0.5        0.25
0.5         0.5         0.5
0.5         0.5        0.75
0.5         0.5           1
0.5         0.5        1.25
0.5         0.5         1.5
0.5         0.5        1.75
0.5         0.5           2
0.5         0.5        2.25
0.5         0.5         2.5
0.5         0.5        2.75
0.5         0.5           3
0.5         0.5        3.25
0.5         0.5         3.5
0.5         0.5        3.75
0.5         0.5           4
0.5         0.5        4.25
0.5         0.5         4.5
0.5         0.5        4.75
0.5         0.5           5
0.5         0.5        5.25
0.5         0.5         5.5
0.5         0.5        5.75
0.5         0.5           6
0.5         0.5        6.25
0.5         0.5         6.5
0.5         0.5        6.75
0.5         0.5           7
0.5         0.5        7.25
0.5         0.5         7.5
0.5         0.5        7.75
0.5         0.5           8
0.5         0.5        8.25
0.5         0.5         8.5
0.5         0.5        8.75
0.5         0.5           9
0.5         0.5        9.25
0.5         0.5         9.5
0.5         0.5        9.75
-0.5         0.5        0.25
-0.5         0.5         0.5
-0.5         0.5        0.75
-0.5         0.5           1
-0.5         0.5        1.25
-0.5         0.5         1.5
-0.5         0.5        1.75
-0.5         0.5           2
-0.5         0.5        2.25
-0.5         0.5         2.5
-0.5         0.5        2.75
-0.5         0.5           3
-0.5         0.5        3.25
-0.5         0.5         3.5
-0.5         0.5        3.75
-0.5         0.5           4
-0.5         0.5        4.25
-0.5         0.5         4.5
-0.5         0.5        4.75
-0.5         0.5           5
-0.5         0.5        5.25
-0.5         0.5         5.5
-0.5         0.5        5.75
-0.5         0.5           6
-0.5         0.5        6.25
-0.5         0.5         6.5
-0.5         0.5        6.75
-0.5         0.5           7
-0.5         0.5        7.25
-0.5         0.5         7.5
-0.5         0.5        7.75
-0.5         0.5           8
-0.5         0.5        8.25
-0.5         0.5         8.5
-0.5         0.5        8.75
-0.5         0.5           9
-0.5         0.5        9.25
-0.5         0.5         9.5
-0.5         0.5        9.75
-0.25       -0.25           0
-0.25  6.8756e-13           0
-0.25        0.25           0
-6.8756e-13       -0.25           0
-3.7821e-24           0           0
6.8756e-13        0.25           0
0.25       -0.25           0
0.25 -6.8756e-13           0
0.25        0.25           0
-0.25        -0.5        0.25
-0.25        -0.5         0.5
-0.25        -0.5        0.75
-0.25        -0.5           1
-0.25        -0.5        1.25
-0.25        -0.5         1.5
-0.25        -0.5        1.75
-0.25        -0.5           2
-0.25        -0.5        2.25
-0.25        -0.5         2.5
-0.25        -0.5        2.75
-0.25        -0.5           3
-0.25        -0.5        3.25
-0.25        -0.5         3.5
-0.25        -0.5        3.75
-0.25        -0.5           4
-0.25        -0.5        4.25
-0.25        -0.5         4.5
-0.25        -0.5        4.75
-0.25        -0.5           5
-0.25        -0.5        5.25
-0.25        -0.5         5.5
-0.25        -0.5        5.75
-0.25        -0.5           6
-0.25        -0.5        6.25
-0.25        -0.5         6.5
-0.25        -0.5        6.75
-0.25        -0.5           7
-0.25        -0.5        7.25
-0.25        -0.5         7.5
-0.25        -0.5        7.75
-0.25        -0.5           8
-0.25        -0.5        8.25
-0.25        -0.5         8.5
-0.25        -0.5        8.75
-0.25        -0.5           9
-0.25        -0.5        9.25
-0.25        -0.5         9.5
-0.25        -0.5        9.75
-1.3751e-12        -0.5        0.25
-1.3751e-12        -0.5         0.5
-1.3751e-12        -0.5        0.75
-1.3751e-12        -0.5           1
-1.3751e-12        -0.5        1.25
-1.3751e-12        -0.5         1.5
-1.3751e-12        -0.5        1.75
-1.3751e-12        -0.5           2
-1.3751e-12        -0.5        2.25
-1.3751e-12        -0.5         2.5
-1.3751e-12        -0.5        2.75
-1.3751e-12        -0.5           3
-1.3751e-12        -0.5        3.25
-1.3751e-12        -0.5         3.5
-1.3751e-12        -0.5        3.75
-1.3751e-12        -0.5           4
-1.3751e-12        -0.5        4.25
-1.3751e-12        -0.5         4.5
-1.3751e-12        -0.5        4.75
-1.3751e-12        -0.5           5
-1.3751e-12        -0.5        5.25
-1.3751e-12        -0.5         5.5
-1.3751e-12        -0.5        5.75
-1.3751e-12        -0.5           6
-1.3751e-12        -0.5        6.25
-1.3751e-12        -0.5         6.5
-1.3751e-12        -0.5        6.75
-1.3751e-12        -0.5           7
-1.3751e-12        -0.5        7.25
-1.3751e-12        -0.5         7.5
-1.3751e-12        -0.5        7.75
-1.3751e-12        -0.5           8
-1.3751e-12        -0.5        8.25
-1.3751e-12        -0.5         8.5
-1.3751e-12        -0.5        8.75
-1.3751e-12        -0.5           9
-1.3751e-12        -0.5        9.25
-1.3751e-12        -0.5         9.5
-1.3751e-12        -0.5        9.75
0.25        -0.5        0.25
0.25        -0.5         0.5
0.25        -0.5        0.75
0.25        -0.5           1
0.25        -0.5        1.25
0.25        -0.5         1.5
0.25        -0.5        1.75
0.25        -0.5           2
0.25        -0.5        2.25
0.25        -0.5         2.5
0.25        -0.5        2.75
0.25        -0.5           3
0.25        -0.5        3.25
0.25        -0.5         3.5
0.25        -0.5        3.75
0.25        -0.5           4
0.25        -0.5        4.25
0.25        -0.5         4.5
0.25        -0.5        4.75
0.25        -0.5           5
0.25        -0.5        5.25
0.25        -0.5         5.5
0.25        -0.5        5.75
0.25        -0.5           6
0.25        -0.5        6.25
0.25        -0.5         6.5
0.25        -0.5        6.75
0.25        -0.5           7
0.25        -0.5        7.25
0.25        -0.5         7.5
0.25        -0.5        7.75
0.25        -0.5           8
0.25        -0.5        8.25
0.25        -0.5         8.5
0.25        -0.5        8.75
0.25        -0.5           9
0.25        -0.5        9.25
0.25        -0.5         9.5
0.25        -0.5        9.75
0.5       -0.25        0.25
0.5       -0.25         0.5
0.5       -0.25        0.75
0.5       -0.25           1
0.5       -0.25        1.25
0.5       -0.25         1.5
0.5       -0.25        1.75
0.5       -0.25           2
0.5       -0.25        2.25
0.5       -0.25         2.5
0.5       -0.25        2.75
0.5       -0.25           3
0.5       -0.25        3.25
0.5       -0.25         3.5
0.5       -0.25        3.75
0.5       -0.25           4
0.5       -0.25        4.25
[...]
POINT_DATA 1025
VECTORS displacement double
0  0  0
0  0  0
0  0  0
0  0  0
1.1935     0.36205   -0.025456
-0.36205      1.1935   -0.025456
-1.1935    -0.36205   -0.025456
0.36205     -1.1935   -0.025456
0  0  0
0  0  0
0  0  0
0  0  0
0  0  0
0  0  0
0  0  0
0  0  0
0  0  0
0  0  0
0  0  0
0  0  0
0.80463     0.56992   -0.032516
0.41573     0.77779   -0.023975
0.026842     0.98565   -0.016178
-0.56992     0.80463   -0.032516
-0.77779     0.41573   -0.023975
-0.98565    0.026842   -0.016178
-0.80463    -0.56992   -0.032516
-0.41573    -0.77779   -0.023975
-0.026842    -0.98565   -0.016178
0.56992    -0.80463   -0.032516
0.77779    -0.41573   -0.023975
0.98565   -0.026842   -0.016178
0.025028   -0.022309 -0.00023927
0.055016   -0.047942  -0.0011103
0.085589   -0.071337   -0.001774
0.11711   -0.092916  -0.0023808
0.14973    -0.11275   -0.002966
0.18337     -0.1308  -0.0035407
0.21794      -0.147  -0.0041135
0.25333     -0.1613  -0.0046864
0.28945    -0.17367  -0.0052598
0.32618    -0.18407  -0.0058332
0.36342    -0.19247  -0.0064068
0.40106    -0.19884  -0.0069803
0.43899    -0.20317  -0.0075538
0.47709    -0.20544  -0.0081273
0.51527    -0.20564  -0.0087009
0.5534    -0.20379  -0.0092744
0.59137    -0.19987  -0.0098479
0.62908    -0.19391   -0.010421
0.66641    -0.18591   -0.010995
0.70325    -0.17591   -0.011568
0.7395    -0.16393   -0.012142
0.77504    -0.15001   -0.012716
0.80978    -0.13419   -0.013289
0.84362    -0.11651   -0.013863
0.87645   -0.097034   -0.014436
0.90818   -0.075807    -0.01501
0.93872   -0.052896   -0.015583
0.96797   -0.028367   -0.016157
0.99585  -0.0022925    -0.01673
1.0223    0.025251   -0.017304
1.0472    0.054184   -0.017877
1.0705    0.084421   -0.018451
1.0921     0.11587   -0.019023
1.112     0.14845   -0.019593
1.1301     0.18206   -0.020158
1.1464      0.2166   -0.020727
1.1607     0.25201    -0.02135
1.1732     0.28818   -0.022186
1.1839     0.32497   -0.023475
0.022309    0.025028 -0.00023927
0.047942    0.055016  -0.0011103
0.071337    0.085589   -0.001774
0.092916     0.11711  -0.0023808
0.11275     0.14973   -0.002966
0.1308     0.18337  -0.0035407
0.147     0.21794  -0.0041135
0.1613     0.25333  -0.0046864
0.17367     0.28945  -0.0052598
0.18407     0.32618  -0.0058332
0.19247     0.36342  -0.0064068
0.19884     0.40106  -0.0069803
0.20317     0.43899  -0.0075538
0.20544     0.47709  -0.0081273
0.20564     0.51527  -0.0087009
0.20379      0.5534  -0.0092744
0.19987     0.59137  -0.0098479
0.19391     0.62908   -0.010421
0.18591     0.66641   -0.010995
0.17591     0.70325   -0.011568
0.16393      0.7395   -0.012142
0.15001     0.77504   -0.012716
0.13419     0.80978   -0.013289
0.11651     0.84362   -0.013863
0.097034     0.87645   -0.014436
0.075807     0.90818    -0.01501
0.052896     0.93872   -0.015583
0.028367     0.96797   -0.016157
0.0022925     0.99585    -0.01673
-0.025251      1.0223   -0.017304
-0.054184      1.0472   -0.017877
-0.084421      1.0705   -0.018451
-0.11587      1.0921   -0.019023
-0.14845       1.112   -0.019593
-0.18206      1.1301   -0.020158
-0.2166      1.1464   -0.020727
-0.25201      1.1607    -0.02135
-0.28818      1.1732   -0.022186
-0.32497      1.1839   -0.023475
-0.025028    0.022309 -0.00023927
-0.055016    0.047942  -0.0011103
-0.085589    0.071337   -0.001774
-0.11711    0.092916  -0.0023808
-0.14973     0.11275   -0.002966
-0.18337      0.1308  -0.0035407
-0.21794       0.147  -0.0041135
-0.25333      0.1613  -0.0046864
-0.28945     0.17367  -0.0052598
-0.32618     0.18407  -0.0058332
-0.36342     0.19247  -0.0064068
-0.40106     0.19884  -0.0069803
-0.43899     0.20317  -0.0075538
-0.47709     0.20544  -0.0081273
-0.51527     0.20564  -0.0087009
-0.5534     0.20379  -0.0092744
-0.59137     0.19987  -0.0098479
-0.62908     0.19391   -0.010421
-0.66641     0.18591   -0.010995
-0.70325     0.17591   -0.011568
-0.7395     0.16393   -0.012142
-0.77504     0.15001   -0.012716
-0.80978     0.13419   -0.013289
-0.84362     0.11651   -0.013863
-0.87645    0.097034   -0.014436
-0.90818    0.075807    -0.01501
-0.93872    0.052896   -0.015583
-0.96797    0.028367   -0.016157
-0.99585   0.0022925    -0.01673
-1.0223   -0.025251   -0.017304
-1.0472   -0.054184   -0.017877
-1.0705   -0.084421   -0.018451
-1.0921    -0.11587   -0.019023
-1.112    -0.14845   -0.019593
-1.1301    -0.18206   -0.020158
-1.1464     -0.2166   -0.020727
-1.1607    -0.25201    -0.02135
-1.1732    -0.28818   -0.022186
-1.1839    -0.32497   -0.023475
-0.022309   -0.025028 -0.00023927
-0.047942   -0.055016  -0.0011103
-0.071337   -0.085589   -0.001774
-0.092916    -0.11711  -0.0023808
-0.11275    -0.14973   -0.002966
-0.1308    -0.18337  -0.0035407
-0.147    -0.21794  -0.0041135
-0.1613    -0.25333  -0.0046864
-0.17367    -0.28945  -0.0052598
-0.18407    -0.32618  -0.0058332
-0.19247    -0.36342  -0.0064068
-0.19884    -0.40106  -0.0069803
-0.20317    -0.43899  -0.0075538
-0.20544    -0.47709  -0.0081273
-0.20564    -0.51527  -0.0087009
-0.20379     -0.5534  -0.0092744
-0.19987    -0.59137  -0.0098479
-0.19391    -0.62908   -0.010421
-0.18591    -0.66641   -0.010995
-0.17591    -0.70325   -0.011568
-0.16393     -0.7395   -0.012142
-0.15001    -0.77504   -0.012716
-0.13419    -0.80978   -0.013289
-0.11651    -0.84362   -0.013863
-0.097034    -0.87645   -0.014436
-0.075807    -0.90818    -0.01501
-0.052896    -0.93872   -0.015583
-0.028367    -0.96797   -0.016157
-0.0022925    -0.99585    -0.01673
0.025251     -1.0223   -0.017304
0.054184     -1.0472   -0.017877
0.084421     -1.0705   -0.018451
0.11587     -1.0921   -0.019023
0.14845      -1.112   -0.019593
0.18206     -1.1301   -0.020158
0.2166     -1.1464   -0.020727
0.25201     -1.1607    -0.02135
0.28818     -1.1732   -0.022186
0.32497     -1.1839   -0.023475
0  0  0
0  0  0
0  0  0
0  0  0
0  0  0
0  0  0
0  0  0
0  0  0
0  0  0
0.025724   -0.011154  -0.0071175
0.053304   -0.022116  -0.0092701
0.08188   -0.032036  -0.0099379
0.11092    -0.04035   -0.010508
0.14034   -0.047088   -0.011079
0.17008    -0.05222   -0.011651
0.20005   -0.055734   -0.012225
0.23017   -0.057622   -0.012798
0.26035   -0.057878   -0.013371
0.2905   -0.056503   -0.013945
0.32052   -0.053499   -0.014518
0.35035   -0.048877   -0.015092
0.37988   -0.042648   -0.015665
0.40903   -0.034833   -0.016239
0.43771   -0.025452   -0.016812
0.46585   -0.014535   -0.017386
0.49335  -0.0021118   -0.017959
0.52014     0.01178   -0.018533
0.54614      0.0271   -0.019107
0.57128    0.043803    -0.01968
0.59547    0.061841   -0.020254
0.61866    0.081161   -0.020827
0.64076     0.10171   -0.021401
0.66173     0.12342   -0.021974
0.68149     0.14623   -0.022548
0.69998     0.17007   -0.023121
0.71716     0.19489   -0.023695
0.73298     0.22059   -0.024268
0.74738     0.24711   -0.024842
0.76032     0.27437   -0.025415
0.77177      0.3023   -0.025989
0.7817      0.3308   -0.026562
0.79007     0.35979   -0.027135
0.79686     0.38919   -0.027707
0.80205     0.41893   -0.028278
0.80561      0.4489    -0.02885
0.80749     0.47906   -0.029443
0.80771     0.50932   -0.030129
0.8064     0.53952   -0.031059
0.026524   0.0012233 -0.00050104
0.051843   0.0034559  -0.0011428
0.078477   0.0069948  -0.0018068
0.10504    0.011947  -0.0023976
0.13128    0.018333  -0.0029687
0.15713    0.026133  -0.0035399
0.18253    0.035321  -0.0041128
0.20738    0.045869  -0.0046862
0.23163    0.057746  -0.0052597
0.2552    0.070917  -0.0058332
0.27803    0.085343  -0.0064068
0.30004     0.10098  -0.0069803
0.32118     0.11779  -0.0075538
0.34137     0.13571  -0.0081273
0.36057      0.1547  -0.0087009
0.37871      0.1747  -0.0092744
0.39575     0.19565  -0.0098479
0.41162      0.2175   -0.010421
0.42629     0.24016   -0.010995
0.43972     0.26359   -0.011568
0.45186     0.28771   -0.012142
0.46268     0.31245   -0.012716
0.47214     0.33774   -0.013289
0.48022     0.36351   -0.013863
0.4869     0.38967   -0.014436
0.49215     0.41616    -0.01501
0.49596     0.44289   -0.015583
0.49833     0.46979   -0.016157
0.49923     0.49678    -0.01673
0.49867     0.52377   -0.017304
0.49666      0.5507   -0.017877
0.49319     0.57748   -0.018451
0.48828     0.60403   -0.019025
0.48194     0.63028   -0.019598
0.47419     0.65615   -0.020168
0.46504     0.68155    -0.02073
0.45449     0.70642   -0.021277
0.44253     0.73069   -0.021841
0.42934     0.75436   -0.022635
0.024617    0.013997   0.0059565
0.050029    0.029484   0.0069374
0.075005    0.046478   0.0063464
0.099066    0.064714   0.0057292
0.1221    0.084222   0.0051457
0.14404     0.10495   0.0045717
0.16482     0.12683   0.0039986
0.18439      0.1498   0.0034253
0.20269      0.1738   0.0028518
0.21967     0.19875   0.0022783
0.23527     0.22459   0.0017048
0.24945     0.25123   0.0011313
0.26217      0.2786  0.00055776
0.27339     0.30661 -1.5766e-05
0.28308     0.33519 -0.00058929
0.29121     0.36426  -0.0011628
0.29776     0.39372  -0.0017363
0.3027     0.42349  -0.0023099
0.30603     0.45348  -0.0028834
0.30773     0.48361  -0.0034569
0.3078     0.51379  -0.0040304
0.30624     0.54393   -0.004604
0.30305     0.57394  -0.0051775
0.29825     0.60374   -0.005751
0.29184     0.63323  -0.0063245
0.28384     0.66233  -0.0068981
0.27428     0.69095  -0.0074716
0.26319     0.71902  -0.0080451
0.2506     0.74645  -0.0086186
0.23654     0.77315  -0.0091922
0.22106     0.79906  -0.0097657
0.2042     0.82409   -0.010339
0.18602     0.84817   -0.010912
0.16656     0.87124   -0.011485
0.14587     0.89321   -0.012054
0.12402     0.91403   -0.012621
0.10106      0.9336   -0.013199
0.077026      0.9519    -0.01385
0.052     0.96906   -0.014766
0.011154    0.025724  -0.0071175
0.022116    0.053304  -0.0092701
0.032036     0.08188  -0.0099379
0.04035     0.11092   -0.010508
0.047088     0.14034   -0.011079
0.05222     0.17008   -0.011651
0.055734     0.20005   -0.012225
0.057622     0.23017   -0.012798
0.057878     0.26035   -0.013371
0.056503      0.2905   -0.013945
0.053499     0.32052   -0.014518
0.048877     0.35035   -0.015092
0.042648     0.37988   -0.015665
0.034833     0.40903   -0.016239
0.025452     0.43771   -0.016812
0.014535     0.46585   -0.017386
0.0021118     0.49335   -0.017959
-0.01178     0.52014   -0.018533
-0.0271     0.54614   -0.019107
-0.043803     0.57128    -0.01968
-0.061841     0.59547   -0.020254
-0.081161     0.61866   -0.020827
-0.10171     0.64076   -0.021401
-0.12342     0.66173   -0.021974
-0.14623     0.68149   -0.022548
-0.17007     0.69998   -0.023121
-0.19489     0.71716   -0.023695
-0.22059     0.73298   -0.024268
-0.24711     0.74738   -0.024842
-0.27437     0.76032   -0.025415
-0.3023     0.77177   -0.025989
-0.3308      0.7817   -0.026562
-0.35979     0.79007   -0.027135
-0.38919     0.79686   -0.027707
-0.41893     0.80205   -0.028278
-0.4489     0.80561    -0.02885
-0.47906     0.80749   -0.029443
-0.50932     0.80771   -0.030129
-0.53952      0.8064   -0.031059
-0.0012233    0.026524 -0.00050104
-0.0034559    0.051843  -0.0011428
-0.0069948    0.078477  -0.0018068
-0.011947     0.10504  -0.0023976
-0.018333     0.13128  -0.0029687
-0.026133     0.15713  -0.0035399
-0.035321     0.18253  -0.0041128
-0.045869     0.20738  -0.0046862
-0.057746     0.23163  -0.0052597
-0.070917      0.2552  -0.0058332
-0.085343     0.27803  -0.0064068
-0.10098     0.30004  -0.0069803
-0.11779     0.32118  -0.0075538
-0.13571     0.34137  -0.0081273
-0.1547     0.36057  -0.0087009
-0.1747     0.37871  -0.0092744
-0.19565     0.39575  -0.0098479
-0.2175     0.41162   -0.010421
-0.24016     0.42629   -0.010995
-0.26359     0.43972   -0.011568
-0.28771     0.45186   -0.012142
-0.31245     0.46268   -0.012716
-0.33774     0.47214   -0.013289
-0.36351     0.48022   -0.013863
-0.38967      0.4869   -0.014436
-0.41616     0.49215    -0.01501
-0.44289     0.49596   -0.015583
-0.46979     0.49833   -0.016157
-0.49678     0.49923    -0.01673
-0.52377     0.49867   -0.017304
-0.5507     0.49666   -0.017877
-0.57748     0.49319   -0.018451
-0.60403     0.48828   -0.019025
-0.63028     0.48194   -0.019598
-0.65615     0.47419   -0.020168
-0.68155     0.46504    -0.02073
-0.70642     0.45449   -0.021277
-0.73069     0.44253   -0.021841
-0.75436     0.42934   -0.022635
-0.013997    0.024617   0.0059565
-0.029484    0.050029   0.0069374
-0.046478    0.075005   0.0063464
-0.064714    0.099066   0.0057292
-0.084222      0.1221   0.0051457
-0.10495     0.14404   0.0045717
-0.12683     0.16482   0.0039986
-0.1498     0.18439   0.0034253
-0.1738     0.20269   0.0028518
-0.19875     0.21967   0.0022783
-0.22459     0.23527   0.0017048
-0.25123     0.24945   0.0011313
-0.2786     0.26217  0.00055776
-0.30661     0.27339 -1.5766e-05
-0.33519     0.28308 -0.00058929
-0.36426     0.29121  -0.0011628
-0.39372     0.29776  -0.0017363
-0.42349      0.3027  -0.0023099
-0.45348     0.30603  -0.0028834
-0.48361     0.30773  -0.0034569
-0.51379      0.3078  -0.0040304
-0.54393     0.30624   -0.004604
-0.57394     0.30305  -0.0051775
-0.60374     0.29825   -0.005751
-0.63323     0.29184  -0.0063245
-0.66233     0.28384  -0.0068981
-0.69095     0.27428  -0.0074716
-0.71902     0.26319  -0.0080451
-0.74645      0.2506  -0.0086186
-0.77315     0.23654  -0.0091922
-0.79906     0.22106  -0.0097657
-0.82409      0.2042   -0.010339
-0.84817     0.18602   -0.010912
-0.87124     0.16656   -0.011485
-0.89321     0.14587   -0.012054
-0.91403     0.12402   -0.012621
-0.9336     0.10106   -0.013199
-0.9519    0.077026    -0.01385
-0.96906       0.052   -0.014766
-0.025724    0.011154  -0.0071175
-0.053304    0.022116  -0.0092701
-0.08188    0.032036  -0.0099379
-0.11092     0.04035   -0.010508
-0.14034    0.047088   -0.011079
-0.17008     0.05222   -0.011651
-0.20005    0.055734   -0.012225
-0.23017    0.057622   -0.012798
-0.26035    0.057878   -0.013371
-0.2905    0.056503   -0.013945
-0.32052    0.053499   -0.014518
-0.35035    0.048877   -0.015092
-0.37988    0.042648   -0.015665
-0.40903    0.034833   -0.016239
-0.43771    0.025452   -0.016812
-0.46585    0.014535   -0.017386
-0.49335   0.0021118   -0.017959
-0.52014    -0.01178   -0.018533
-0.54614     -0.0271   -0.019107
-0.57128   -0.043803    -0.01968
-0.59547   -0.061841   -0.020254
-0.61866   -0.081161   -0.020827
-0.64076    -0.10171   -0.021401
-0.66173    -0.12342   -0.021974
-0.68149    -0.14623   -0.022548
-0.69998    -0.17007   -0.023121
-0.71716    -0.19489   -0.023695
-0.73298    -0.22059   -0.024268
-0.74738    -0.24711   -0.024842
-0.76032    -0.27437   -0.025415
-0.77177     -0.3023   -0.025989
-0.7817     -0.3308   -0.026562
-0.79007    -0.35979   -0.027135
-0.79686    -0.38919   -0.027707
-0.80205    -0.41893   -0.028278
-0.80561     -0.4489    -0.02885
-0.80749    -0.47906   -0.029443
-0.80771    -0.50932   -0.030129
-0.8064    -0.53952   -0.031059
-0.026524  -0.0012233 -0.00050104
-0.051843  -0.0034559  -0.0011428
-0.078477  -0.0069948  -0.0018068
-0.10504   -0.011947  -0.0023976
-0.13128   -0.018333  -0.0029687
-0.15713   -0.026133  -0.0035399
-0.18253   -0.035321  -0.0041128
-0.20738   -0.045869  -0.0046862
-0.23163   -0.057746  -0.0052597
-0.2552   -0.070917  -0.0058332
-0.27803   -0.085343  -0.0064068
-0.30004    -0.10098  -0.0069803
-0.32118    -0.11779  -0.0075538
-0.34137    -0.13571  -0.0081273
-0.36057     -0.1547  -0.0087009
-0.37871     -0.1747  -0.0092744
-0.39575    -0.19565  -0.0098479
-0.41162     -0.2175   -0.010421
-0.42629    -0.24016   -0.010995
-0.43972    -0.26359   -0.011568
-0.45186    -0.28771   -0.012142
-0.46268    -0.31245   -0.012716
-0.47214    -0.33774   -0.013289
-0.48022    -0.36351   -0.013863
-0.4869    -0.38967   -0.014436
-0.49215    -0.41616    -0.01501
-0.49596    -0.44289   -0.015583
-0.49833    -0.46979   -0.016157
-0.49923    -0.49678    -0.01673
-0.49867    -0.52377   -0.017304
-0.49666     -0.5507   -0.017877
-0.49319    -0.57748   -0.018451
-0.48828    -0.60403   -0.019025
-0.48194    -0.63028   -0.019598
-0.47419    -0.65615   -0.020168
-0.46504    -0.68155    -0.02073
-0.45449    -0.70642   -0.021277
-0.44253    -0.73069   -0.021841
-0.42934    -0.75436   -0.022635
-0.024617   -0.013997   0.0059565
-0.050029   -0.029484   0.0069374
-0.075005   -0.046478   0.0063464
-0.099066   -0.064714   0.0057292
-0.1221   -0.084222   0.0051457
-0.14404    -0.10495   0.0045717
-0.16482    -0.12683   0.0039986
-0.18439     -0.1498   0.0034253
-0.20269     -0.1738   0.0028518
-0.21967    -0.19875   0.0022783
-0.23527    -0.22459   0.0017048
-0.24945    -0.25123   0.0011313
-0.26217     -0.2786  0.00055776
-0.27339    -0.30661 -1.5766e-05
-0.28308    -0.33519 -0.00058929
-0.29121    -0.36426  -0.0011628
-0.29776    -0.39372  -0.0017363
-0.3027    -0.42349  -0.0023099
-0.30603    -0.45348  -0.0028834
-0.30773    -0.48361  -0.0034569
-0.3078    -0.51379  -0.0040304
-0.30624    -0.54393   -0.004604
-0.30305    -0.57394  -0.0051775
-0.29825    -0.60374   -0.005751
-0.29184    -0.63323  -0.0063245
-0.28384    -0.66233  -0.0068981
-0.27428    -0.69095  -0.0074716
-0.26319    -0.71902  -0.0080451
-0.2506    -0.74645  -0.0086186
-0.23654    -0.77315  -0.0091922
-0.22106    -0.79906  -0.0097657
-0.2042    -0.82409   -0.010339
-0.18602    -0.84817   -0.010912
-0.16656    -0.87124   -0.011485
-0.14587    -0.89321   -0.012054
-0.12402    -0.91403   -0.012621
-0.10106     -0.9336   -0.013199
-0.077026     -0.9519    -0.01385
-0.052    -0.96906   -0.014766
-0.011154   -0.025724  -0.0071175
-0.022116   -0.053304  -0.0092701
-0.032036    -0.08188  -0.0099379
-0.04035    -0.11092   -0.010508
-0.047088    -0.14034   -0.011079
-0.05222    -0.17008   -0.011651
-0.055734    -0.20005   -0.012225
-0.057622    -0.23017   -0.012798
-0.057878    -0.26035   -0.013371
-0.056503     -0.2905   -0.013945
-0.053499    -0.32052   -0.014518
-0.048877    -0.35035   -0.015092
-0.042648    -0.37988   -0.015665
-0.034833    -0.40903   -0.016239
-0.025452    -0.43771   -0.016812
-0.014535    -0.46585   -0.017386
-0.0021118    -0.49335   -0.017959
0.01178    -0.52014   -0.018533
0.0271    -0.54614   -0.019107
0.043803    -0.57128    -0.01968
0.061841    -0.59547   -0.020254
0.081161    -0.61866   -0.020827
0.10171    -0.64076   -0.021401
0.12342    -0.66173   -0.021974
0.14623    -0.68149   -0.022548
0.17007    -0.69998   -0.023121
0.19489    -0.71716   -0.023695
0.22059    -0.73298   -0.024268
0.24711    -0.74738   -0.024842
0.27437    -0.76032   -0.025415
0.3023    -0.77177   -0.025989
0.3308     -0.7817   -0.026562
0.35979    -0.79007   -0.027135
0.38919    -0.79686   -0.027707
0.41893    -0.80205   -0.028278
0.4489    -0.80561    -0.02885
0.47906    -0.80749   -0.029443
0.50932    -0.80771   -0.030129
0.53952     -0.8064   -0.031059
0.0012233   -0.026524 -0.00050104
0.0034559   -0.051843  -0.0011428
0.0069948   -0.078477  -0.0018068
0.011947    -0.10504  -0.0023976
0.018333    -0.13128  -0.0029687
0.026133    -0.15713  -0.0035399
0.035321    -0.18253  -0.0041128
0.045869    -0.20738  -0.0046862
0.057746    -0.23163  -0.0052597
0.070917     -0.2552  -0.0058332
0.085343    -0.27803  -0.0064068
0.10098    -0.30004  -0.0069803
0.11779    -0.32118  -0.0075538
0.13571    -0.34137  -0.0081273
0.1547    -0.36057  -0.0087009
0.1747    -0.37871  -0.0092744
0.19565    -0.39575  -0.0098479
0.2175    -0.41162   -0.010421
0.24016    -0.42629   -0.010995
0.26359    -0.43972   -0.011568
0.28771    -0.45186   -0.012142
0.31245    -0.46268   -0.012716
0.33774    -0.47214   -0.013289
0.36351    -0.48022   -0.013863
0.38967     -0.4869   -0.014436
0.41616    -0.49215    -0.01501
0.44289    -0.49596   -0.015583
0.46979    -0.49833   -0.016157
0.49678    -0.49923    -0.01673
0.52377    -0.49867   -0.017304
0.5507    -0.49666   -0.017877
0.57748    -0.49319   -0.018451
0.60403    -0.48828   -0.019025
0.63028    -0.48194   -0.019598
0.65615    -0.47419   -0.020168
0.68155    -0.46504    -0.02073
0.70642    -0.45449   -0.021277
0.73069    -0.44253   -0.021841
0.75436    -0.42934   -0.022635
0.013997   -0.024617   0.0059565
0.029484   -0.050029   0.0069374
0.046478   -0.075005   0.0063464
0.064714   -0.099066   0.0057292