# vtk DataFile Version 3.0
VTK Output
ASCII
DATASET UNSTRUCTURED_GRID

POINTS 1025 float
-0.5        -0.5           0
0.5        -0.5           0
0.5         0.5           0
-0.5         0.5           0
-0.5         -0.5           10
0.5         -0.5           10
0.5          0.5           10
-0.5          0.5           10
-0.25        -0.5           0
-1.3751e-12        -0.5           0
0.25        -0.5           0
0.5       -0.25           0
0.5 -1.3751e-12           0
0.5        0.25           0
0.25         0.5           0
1.3751e-12         0.5           0
-0.25         0.5           0
-0.5        0.25           0
-0.5  1.3751e-12           0
-0.5       -0.25           0
-0.25         -0.5           10
-1.37512e-12         -0.5           10
0.25         -0.5           10
0.5        -0.25           10
0.5 -1.37512e-12           10
0.5         0.25           10
0.25          0.5           10
1.37512e-12          0.5           10
-0.25          0.5           10
-0.5         0.25           10
-0.5  1.37512e-12           10
-0.5        -0.25           10
-0.5        -0.5        0.25
-0.5        -0.5         0.5
-0.5        -0.5        0.75
-0.5        -0.5           1
-0.5        -0.5        1.25
-0.5        -0.5         1.5
-0.5        -0.5        1.75
-0.5        -0.5           2
-0.5        -0.5        2.25
-0.5        -0.5         2.5
-0.5        -0.5        2.75
-0.5        -0.5           3
-0.5        -0.5        3.25
-0.5        -0.5         3.5
-0.5        -0.5        3.75
-0.5        -0.5           4
-0.5        -0.5        4.25
-0.5        -0.5         4.5
-0.5        -0.5        4.75
-0.5        -0.5           5
-0.5        -0.5        5.25
-0.5        -0.5         5.5
-0.5        -0.5        5.75
-0.5        -0.5           6
-0.5        -0.5        6.25
-0.5        -0.5         6.5
-0.5        -0.5        6.75
-0.5        -0.5           7
-0.5        -0.5        7.25
-0.5        -0.5         7.5
-0.5        -0.5        7.75
-0.5        -0.5           8
-0.5        -0.5        8.25
-0.5        -0.5         8.5
-0.5        -0.5        8.75
-0.5        -0.5           9
-0.5        -0.5        9.25
-0.5        -0.5         9.5
-0.5        -0.5        9.75
0.5        -0.5        0.25
0.5        -0.5         0.5
0.5        -0.5        0.75
0.5        -0.5           1
0.5        -0.5        1.25
0.5        -0.5         1.5
0.5        -0.5        1.75
0.5        -0.5           2
0.5        -0.5        2.25
0.5        -0.5         2.5
0.5        -0.5        2.75
0.5        -0.5           3
0.5        -0.5        3.25
0.5        -0.5         3.5
0.5        -0.5        3.75
0.5        -0.5           4
0.5        -0.5        4.25
0.5        -0.5         4.5
0.5        -0.5        4.75
0.5        -0.5           5
0.5        -0.5        5.25
0.5        -0.5         5.5
0.5        -0.5        5.75
0.5        -0.5           6
0.5        -0.5        6.25
0.5        -0.5         6.5
0.5        -0.5        6.75
0.5        -0.5           7
0.5        -0.5        7.25
0.5        -0.5         7.5
0.5        -0.5        7.75
0.5        -0.5           8
0.5        -0.5        8.25
0.5        -0.5         8.5
0.5        -0.5        8.75
0.5        -0.5           9
0.5        -0.5        9.25
0.5        -0.5         9.5
0.5        -0.5        9.75
0.5         0.5        0.25
0.5         0.5         0.5
0.5         0.5        0.75
0.5         0.5           1
0.5         0.5        1.25
0.5         0.5         1.5
0.5         0.5        1.75
0.5         0.5           2
0.5         0.5        2.25
0.5         0.5         2.5
0.5         0.5        2.75
0.5         0.5           3
0.5         0.5        3.25
0.5         0.5         3.5
0.5         0.5        3.75
0.5         0.5           4
0.5         0.5        4.25
0.5         0.5         4.5
0.5         0.5        4.75
0.5         0.5           5
0.5         0.5        5.25
0.5         0.5         5.5
0.5         0.5        5.75
0.5         0.5           6
0.5         0.5        6.25
0.5         0.5         6.5
0.5         0.5        6.75
0.5         0.5           7
0.5         0.5        7.25
0.5         0.5         7.5
0.5         0.5        7.75
0.5         0.5           8
0.5         0.5        8.25
0.5         0.5         8.5
0.5         0.5        8.75
0.5         0.5           9
0.5         0.5        9.25
0.5         0.5         9.5
0.5         0.5        9.75
-0.5         0.5        0.25
-0.5         0.5         0.5
-0.5         0.5        0.75
-0.5         0.5           1
-0.5         0.5        1.25
-0.5         0.5         1.5
-0.5         0.5        1.75
-0.5         0.5           2
-0.5         0.5        2.25
-0.5         0.5         2.5
-0.5         0.5        2.75
-0.5         0.5           3
-0.5         0.5        3.25
-0.5         0.5         3.5
-0.5         0.5        3.75
-0.5         0.5           4
-0.5         0.5        4.25
-0.5         0.5         4.5
-0.5         0.5        4.75
-0.5         0.5           5
-0.5         0.5        5.25
-0.5         0.5         5.5
-0.5         0.5        5.75
-0.5         0.5           6
-0.5         0.5        6.25
-0.5         0.5         6.5
-0.5         0.5        6.75
-0.5         0.5           7
-0.5         0.5        7.25
-0.5         0.5         7.5
-0.5         0.5        7.75
-0.5         0.5           8
-0.5         0.5        8.25
-0.5         0.5         8.5
-0.5         0.5        8.75
-0.5         0.5           9
-0.5         0.5        9.25
-0.5         0.5         9.5
-0.5         0.5        9.75
-0.25       -0.25           0
-0.25  6.8756e-13           0
-0.25        0.25           0
-6.8756e-13       -0.25           0
-3.7821e-24           0           0
6.8756e-13        0.25           0
0.25       -0.25           0
0.25 -6.8756e-13           0
0.25        0.25           0
-0.25        -0.5        0.25
-0.25        -0.5         0.5
-0.25        -0.5        0.75
-0.25        -0.5           1
-0.25        -0.5        1.25
-0.25        -0.5         1.5
-0.25        -0.5        1.75
-0.25        -0.5           2
-0.25        -0.5        2.25
-0.25        -0.5         2.5
-0.25        -0.5        2.75
-0.25        -0.5           3
-0.25        -0.5        3.25
-0.25        -0.5         3.5
-0.25        -0.5        3.75
-0.25        -0.5           4
-0.25        -0.5        4.25
-0.25        -0.5         4.5
-0.25        -0.5        4.75
-0.25        -0.5           5
-0.25        -0.5        5.25
-0.25        -0.5         5.5
-0.25        -0.5        5.75
-0.25        -0.5           6
-0.25        -0.5        6.25
-0.25        -0.5         6.5
-0.25        -0.5        6.75
-0.25        -0.5           7
-0.25        -0.5        7.25
-0.25        -0.5         7.5
-0.25        -0.5        7.75
-0.25        -0.5           8
-0.25        -0.5        8.25
-0.25        -0.5         8.5
-0.25        -0.5        8.75
-0.25        -0.5           9
-0.25        -0.5        9.25
-0.25        -0.5         9.5
-0.25        -0.5        9.75
-1.3751e-12        -0.5        0.25
-1.3751e-12        -0.5         0.5
-1.3751e-12        -0.5        0.75
-1.3751e-12        -0.5           1
-1.3751e-12        -0.5        1.25
-1.3751e-12        -0.5         1.5
-1.3751e-12        -0.5        1.75
-1.3751e-12        -0.5           2
-1.3751e-12        -0.5        2.25
-1.3751e-12        -0.5         2.5
-1.3751e-12        -0.5        2.75
-1.3751e-12        -0.5           3
-1.3751e-12        -0.5        3.25
-1.3751e-12        -0.5         3.5
-1.3751e-12        -0.5        3.75
-1.3751e-12        -0.5           4
-1.3751e-12        -0.5        4.25
-1.3751e-12        -0.5         4.5
-1.3751e-12        -0.5        4.75
-1.3751e-12        -0.5           5
-1.3751e-12        -0.5        5.25
-1.3751e-12        -0.5         5.5
-1.3751e-12        -0.5        5.75
-1.3751e-12        -0.5           6
-1.3751e-12        -0.5        6.25
-1.3751e-12        -0.5         6.5
-1.3751e-12        -0.5        6.75
-1.3751e-12        -0.5           7
-1.3751e-12        -0.5        7.25
-1.3751e-12        -0.5         7.5
-1.3751e-12        -0.5        7.75
-1.3751e-12        -0.5           8
-1.3751e-12        -0.5        8.25
-1.3751e-12        -0.5         8.5
-1.3751e-12        -0.5        8.75
-1.3751e-12        -0.5           9
-1.3751e-12        -0.5        9.25
-1.3751e-12        -0.5         9.5
-1.3751e-12        -0.5        9.75
0.25        -0.5        0.25
0.25        -0.5         0.5
0.25        -0.5        0.75
0.25        -0.5           1
0.25        -0.5        1.25
0.25        -0.5         1.5
0.25        -0.5        1.75
0.25        -0.5           2
0.25        -0.5        2.25
0.25        -0.5         2.5
0.25        -0.5        2.75
0.25        -0.5           3
0.25        -0.5        3.25
0.25        -0.5         3.5
0.25        -0.5        3.75
0.25        -0.5           4
0.25        -0.5        4.25
0.25        -0.5         4.5
0.25        -0.5        4.75
0.25        -0.5           5
0.25        -0.5        5.25
0.25        -0.5         5.5
0.25        -0.5        5.75
0.25        -0.5           6
0.25        -0.5        6.25
0.25        -0.5         6.5
0.25        -0.5        6.75
0.25        -0.5           7
0.25        -0.5        7.25
0.25        -0.5         7.5
0.25        -0.5        7.75
0.25        -0.5           8
0.25        -0.5        8.25
0.25        -0.5         8.5
0.25        -0.5        8.75
0.25        -0.5           9
0.25        -0.5        9.25
0.25        -0.5         9.5
0.25        -0.5        9.75
0.5       -0.25        0.25
0.5       -0.25         0.5
0.5       -0.25        0.75
0.5       -0.25           1
0.5       -0.25        1.25
0.5       -0.25         1.5
0.5       -0.25        1.75
0.5       -0.25           2
0.5       -0.25        2.25
0.5       -0.25         2.5
0.5       -0.25        2.75
0.5       -0.25           3
0.5       -0.25        3.25
0.5       -0.25         3.5
0.5       -0.25        3.75
0.5       -0.25           4
0.5       -0.25        4.25
[...]
POINT_DATA 1025
VECTORS displacement double
0  0  0
0  0  0
0  0  0
0  0  0
4.996e-16 -5.5511e-16    -0.21127
2.2204e-16  7.2164e-16    -0.21127
-1.0547e-15           0    -0.21127
-2.2204e-16 -5.5511e-16    -0.21127
0  0  0
0  0  0
0  0  0
0  0  0
0  0  0
0  0  0
0  0  0
0  0  0
0  0  0
0  0  0
0  0  0
0  0  0
1.3323e-15 -5.5511e-16    -0.22615
1.0408e-15  4.4756e-16    -0.19807
9.0206e-16  7.2164e-16    -0.17635
-6.9389e-17  9.4369e-16    -0.22615
-3.8858e-16  7.6328e-16    -0.19807
-5.5511e-17  5.5511e-16    -0.17635
-1.1657e-15  1.1102e-16    -0.22615
-1.0825e-15 -4.4062e-16    -0.19807
-1.138e-15 -3.8164e-16    -0.17635
-6.6613e-16 -1.1657e-15    -0.22615
3.8858e-16 -1.6653e-16    -0.19807
2.7756e-16 -7.2164e-16    -0.17635
0.077544   -0.055344  -0.0017779
0.17224    -0.11453  -0.0086278
0.27369    -0.15804   -0.014291
0.37988    -0.18539   -0.019387
0.48879    -0.19581   -0.024205
0.59788    -0.18902   -0.028907
0.70454    -0.16522   -0.033591
0.80614      -0.125    -0.03828
0.90021   -0.069375   -0.042975
0.9844   0.0002924   -0.047672
1.0567     0.08228    -0.05237
1.1152     0.17457   -0.057068
1.1585     0.27488   -0.061766
1.1857     0.38074   -0.066463
1.1959     0.48954   -0.071161
1.1889      0.5986   -0.075858
1.165     0.70523   -0.080556
1.1247      0.8068   -0.085254
1.069     0.90081   -0.089951
0.99919     0.98493   -0.094649
0.91713      1.0571   -0.099347
0.82478      1.1155    -0.10404
0.72442      1.1588    -0.10874
0.61853      1.1858    -0.11344
0.50972      1.1959    -0.11814
0.40067      1.1888    -0.12283
0.29406      1.1648    -0.12753
0.19254      1.1244    -0.13223
0.098592      1.0685    -0.13693
0.014544     0.99868    -0.14163
-0.057535     0.91654    -0.14633
-0.11587     0.82413    -0.15102
-0.15902     0.72375    -0.15571
-0.18592     0.61786    -0.16036
-0.19585     0.50906    -0.16494
-0.18842     0.39996    -0.16953
-0.16351     0.29295    -0.17467
-0.1215     0.19002    -0.18197
-0.064631    0.092465    -0.19364
0.055344    0.077544  -0.0017779
0.11453     0.17224  -0.0086278
0.15804     0.27369   -0.014291
0.18539     0.37988   -0.019387
0.19581     0.48879   -0.024205
0.18902     0.59788   -0.028907
0.16522     0.70454   -0.033591
0.125     0.80614    -0.03828
0.069375     0.90021   -0.042975
-0.0002924      0.9844   -0.047672
-0.08228      1.0567    -0.05237
-0.17457      1.1152   -0.057068
-0.27488      1.1585   -0.061766
-0.38074      1.1857   -0.066463
-0.48954      1.1959   -0.071161
-0.5986      1.1889   -0.075858
-0.70523       1.165   -0.080556
-0.8068      1.1247   -0.085254
-0.90081       1.069   -0.089951
-0.98493     0.99919   -0.094649
-1.0571     0.91713   -0.099347
-1.1155     0.82478    -0.10404
-1.1588     0.72442    -0.10874
-1.1858     0.61853    -0.11344
-1.1959     0.50972    -0.11814
-1.1888     0.40067    -0.12283
-1.1648     0.29406    -0.12753
-1.1244     0.19254    -0.13223
-1.0685    0.098592    -0.13693
-0.99868    0.014544    -0.14163
-0.91654   -0.057535    -0.14633
-0.82413    -0.11587    -0.15102
-0.72375    -0.15902    -0.15571
-0.61786    -0.18592    -0.16036
-0.50906    -0.19585    -0.16494
-0.39996    -0.18842    -0.16953
-0.29295    -0.16351    -0.17467
-0.19002     -0.1215    -0.18197
-0.092465   -0.064631    -0.19364
-0.077544    0.055344  -0.0017779
-0.17224     0.11453  -0.0086278
-0.27369     0.15804   -0.014291
-0.37988     0.18539   -0.019387
-0.48879     0.19581   -0.024205
-0.59788     0.18902   -0.028907
-0.70454     0.16522   -0.033591
-0.80614       0.125    -0.03828
-0.90021    0.069375   -0.042975
-0.9844  -0.0002924   -0.047672
-1.0567    -0.08228    -0.05237
-1.1152    -0.17457   -0.057068
-1.1585    -0.27488   -0.061766
-1.1857    -0.38074   -0.066463
-1.1959    -0.48954   -0.071161
-1.1889     -0.5986   -0.075858
-1.165    -0.70523   -0.080556
-1.1247     -0.8068   -0.085254
-1.069    -0.90081   -0.089951
-0.99919    -0.98493   -0.094649
-0.91713     -1.0571   -0.099347
-0.82478     -1.1155    -0.10404
-0.72442     -1.1588    -0.10874
-0.61853     -1.1858    -0.11344
-0.50972     -1.1959    -0.11814
-0.40067     -1.1888    -0.12283
-0.29406     -1.1648    -0.12753
-0.19254     -1.1244    -0.13223
-0.098592     -1.0685    -0.13693
-0.014544    -0.99868    -0.14163
0.057535    -0.91654    -0.14633
0.11587    -0.82413    -0.15102
0.15902    -0.72375    -0.15571
0.18592    -0.61786    -0.16036
0.19585    -0.50906    -0.16494
0.18842    -0.39996    -0.16953
0.16351    -0.29295    -0.17467
0.1215    -0.19002    -0.18197
0.064631   -0.092465    -0.19364
-0.055344   -0.077544  -0.0017779
-0.11453    -0.17224  -0.0086278
-0.15804    -0.27369   -0.014291
-0.18539    -0.37988   -0.019387
-0.19581    -0.48879   -0.024205
-0.18902    -0.59788   -0.028907
-0.16522    -0.70454   -0.033591
-0.125    -0.80614    -0.03828
-0.069375    -0.90021   -0.042975
0.0002924     -0.9844   -0.047672
0.08228     -1.0567    -0.05237
0.17457     -1.1152   -0.057068
0.27488     -1.1585   -0.061766
0.38074     -1.1857   -0.066463
0.48954     -1.1959   -0.071161
0.5986     -1.1889   -0.075858
0.70523      -1.165   -0.080556
0.8068     -1.1247   -0.085254
0.90081      -1.069   -0.089951
0.98493    -0.99919   -0.094649
1.0571    -0.91713   -0.099347
1.1155    -0.82478    -0.10404
1.1588    -0.72442    -0.10874
1.1858    -0.61853    -0.11344
1.1959    -0.50972    -0.11814
1.1888    -0.40067    -0.12283
1.1648    -0.29406    -0.12753
1.1244    -0.19254    -0.13223
1.0685   -0.098592    -0.13693
0.99868   -0.014544    -0.14163
0.91654    0.057535    -0.14633
0.82413     0.11587    -0.15102
0.72375     0.15902    -0.15571
0.61786     0.18592    -0.16036
0.50906     0.19585    -0.16494
0.39996     0.18842    -0.16953
0.29295     0.16351    -0.17467
0.19002      0.1215    -0.18197
0.092465    0.064631    -0.19364
0  0  0
0  0  0
0  0  0
0  0  0
0  0  0
0  0  0
0  0  0
0  0  0
0  0  0
0.074618   -0.023824   -0.023166
0.15712   -0.042283   -0.032664
0.24363   -0.049993   -0.038222
0.33013   -0.044177   -0.043073
0.41444   -0.024971   -0.047764
0.49461   0.0072148   -0.052442
0.56874     0.05157   -0.057129
0.63501     0.10699   -0.061823
0.69178      0.1721    -0.06652
0.73766      0.2453   -0.071218
0.77152     0.32478   -0.075916
0.79252     0.40858   -0.080614
0.80014     0.49463   -0.085311
0.7942     0.58082   -0.090009
0.77484     0.66501   -0.094707
0.74254     0.74513   -0.099404
0.69809     0.81921     -0.1041
0.6426     0.88542     -0.1088
0.57743     0.94213     -0.1135
0.50418     0.98793    -0.11819
0.42467      1.0217    -0.12289
0.34085      1.0426    -0.12759
0.25479      1.0501    -0.13229
0.16861      1.0441    -0.13699
0.084438      1.0247    -0.14168
0.0043482     0.99228    -0.14638
-0.069684     0.94776    -0.15108
-0.13583     0.89219    -0.15578
-0.19247     0.82696    -0.16047
-0.2382     0.75366    -0.16517
-0.27189     0.67412    -0.16987
-0.29272     0.59028    -0.17457
-0.30017     0.50422    -0.17926
-0.29407     0.41807    -0.18393
-0.27451     0.33394    -0.18858
-0.24179     0.25389    -0.19328
-0.19621     0.17989     -0.1983
-0.13833     0.11365     -0.2045
-0.070847    0.056415    -0.21287
0.073846   0.0097172  -0.0037402
0.14466    0.027985  -0.0090986
0.2165    0.056665   -0.014652
0.2835    0.096017   -0.019543
0.34339     0.14537   -0.024225
0.39471     0.20349   -0.028895
0.43626     0.26892   -0.033581
0.46706     0.34006   -0.038277
0.48633     0.41515   -0.042974
0.49362     0.49232   -0.047672
0.48874     0.56969    -0.05237
0.4718     0.64533   -0.057068
0.44324      0.7174   -0.061766
0.40374      0.7841   -0.066463
0.35429      0.8438   -0.071161
0.2961     0.89502   -0.075858
0.23062      0.9365   -0.080556
0.15944     0.96722   -0.085254
0.08434     0.98642   -0.089951
0.0071561     0.99363   -0.094649
-0.070204     0.98866   -0.099347
-0.14583     0.97165    -0.10404
-0.21787     0.94301    -0.10874
-0.28453     0.90344    -0.11344
-0.34417     0.85393    -0.11814
-0.39533     0.79569    -0.12283
-0.43675     0.73016    -0.12753
-0.46739     0.65895    -0.13223
-0.48651     0.58383    -0.13693
-0.49364     0.50663    -0.14163
-0.48859     0.42928    -0.14632
-0.4715     0.35367    -0.15102
-0.44279     0.28167    -0.15573
-0.40318     0.21505    -0.16042
-0.35361     0.15549    -0.16507
-0.2952     0.10449     -0.1696
-0.22901    0.063506    -0.17398
-0.1561    0.033736    -0.17872
-0.07827    0.014911    -0.18591
0.06561     0.04668    0.014122
0.13017     0.10202    0.014034
0.18751     0.16687   0.0091461
0.23446     0.23963   0.0041603
0.26939     0.31874 -0.00063541
0.29142      0.4023  -0.0053464
0.30005     0.48826    -0.01004
0.2951     0.57451   -0.014733
0.27672     0.65892    -0.01943
0.24535     0.73941   -0.024127
0.20176       0.814   -0.028824
0.14704     0.88084   -0.033522
0.082529      0.9383    -0.03822
0.0098187     0.98495   -0.042917
-0.069298      1.0196   -0.047615
-0.15287      1.0415   -0.052313
-0.23884      1.0501    -0.05701
-0.32508       1.045   -0.061708
-0.40947      1.0265   -0.066406
-0.48993     0.99509   -0.071103
-0.56447     0.95143   -0.075801
-0.63126     0.89664   -0.080498
-0.68865     0.83207   -0.085196
-0.73523     0.75931   -0.089894
-0.76984     0.68015   -0.094591
-0.79163     0.59656   -0.099289
-0.80007     0.51058    -0.10399
-0.79494     0.42434    -0.10868
-0.77638     0.33997    -0.11338
-0.74484     0.25955    -0.11808
-0.7011     0.18505    -0.12278
-0.64624     0.11831    -0.12748
-0.58161     0.06099    -0.13217
-0.50883    0.014497    -0.13686
-0.42966   -0.019983    -0.14149
-0.34602   -0.041492    -0.14606
-0.25973   -0.049294    -0.15065
-0.17235   -0.043094    -0.15591
-0.084417    -0.02395    -0.16409
0.023824    0.074618   -0.023166
0.042283     0.15712   -0.032664
0.049993     0.24363   -0.038222
0.044177     0.33013   -0.043073
0.024971     0.41444   -0.047764
-0.0072148     0.49461   -0.052442
-0.05157     0.56874   -0.057129
-0.10699     0.63501   -0.061823
-0.1721     0.69178    -0.06652
-0.2453     0.73766   -0.071218
-0.32478     0.77152   -0.075916
-0.40858     0.79252   -0.080614
-0.49463     0.80014   -0.085311
-0.58082      0.7942   -0.090009
-0.66501     0.77484   -0.094707
-0.74513     0.74254   -0.099404
-0.81921     0.69809     -0.1041
-0.88542      0.6426     -0.1088
-0.94213     0.57743     -0.1135
-0.98793     0.50418    -0.11819
-1.0217     0.42467    -0.12289
-1.0426     0.34085    -0.12759
-1.0501     0.25479    -0.13229
-1.0441     0.16861    -0.13699
-1.0247    0.084438    -0.14168
-0.99228   0.0043482    -0.14638
-0.94776   -0.069684    -0.15108
-0.89219    -0.13583    -0.15578
-0.82696    -0.19247    -0.16047
-0.75366     -0.2382    -0.16517
-0.67412    -0.27189    -0.16987
-0.59028    -0.29272    -0.17457
-0.50422    -0.30017    -0.17926
-0.41807    -0.29407    -0.18393
-0.33394    -0.27451    -0.18858
-0.25389    -0.24179    -0.19328
-0.17989    -0.19621     -0.1983
-0.11365    -0.13833     -0.2045
-0.056415   -0.070847    -0.21287
-0.0097172    0.073846  -0.0037402
-0.027985     0.14466  -0.0090986
-0.056665      0.2165   -0.014652
-0.096017      0.2835   -0.019543
-0.14537     0.34339   -0.024225
-0.20349     0.39471   -0.028895
-0.26892     0.43626   -0.033581
-0.34006     0.46706   -0.038277
-0.41515     0.48633   -0.042974
-0.49232     0.49362   -0.047672
-0.56969     0.48874    -0.05237
-0.64533      0.4718   -0.057068
-0.7174     0.44324   -0.061766
-0.7841     0.40374   -0.066463
-0.8438     0.35429   -0.071161
-0.89502      0.2961   -0.075858
-0.9365     0.23062   -0.080556
-0.96722     0.15944   -0.085254
-0.98642     0.08434   -0.089951
-0.99363   0.0071561   -0.094649
-0.98866   -0.070204   -0.099347
-0.97165    -0.14583    -0.10404
-0.94301    -0.21787    -0.10874
-0.90344    -0.28453    -0.11344
-0.85393    -0.34417    -0.11814
-0.79569    -0.39533    -0.12283
-0.73016    -0.43675    -0.12753
-0.65895    -0.46739    -0.13223
-0.58383    -0.48651    -0.13693
-0.50663    -0.49364    -0.14163
-0.42928    -0.48859    -0.14632
-0.35367     -0.4715    -0.15102
-0.28167    -0.44279    -0.15573
-0.21505    -0.40318    -0.16042
-0.15549    -0.35361    -0.16507
-0.10449     -0.2952     -0.1696
-0.063506    -0.22901    -0.17398
-0.033736     -0.1561    -0.17872
-0.014911    -0.07827    -0.18591
-0.04668     0.06561    0.014122
-0.10202     0.13017    0.014034
-0.16687     0.18751   0.0091461
-0.23963     0.23446   0.0041603
-0.31874     0.26939 -0.00063541
-0.4023     0.29142  -0.0053464
-0.48826     0.30005    -0.01004
-0.57451      0.2951   -0.014733
-0.65892     0.27672    -0.01943
-0.73941     0.24535   -0.024127
-0.814     0.20176   -0.028824
-0.88084     0.14704   -0.033522
-0.9383    0.082529    -0.03822
-0.98495   0.0098187   -0.042917
-1.0196   -0.069298   -0.047615
-1.0415    -0.15287   -0.052313
-1.0501    -0.23884    -0.05701
-1.045    -0.32508   -0.061708
-1.0265    -0.40947   -0.066406
-0.99509    -0.48993   -0.071103
-0.95143    -0.56447   -0.075801
-0.89664    -0.63126   -0.080498
-0.83207    -0.68865   -0.085196
-0.75931    -0.73523   -0.089894
-0.68015    -0.76984   -0.094591
-0.59656    -0.79163   -0.099289
-0.51058    -0.80007    -0.10399
-0.42434    -0.79494    -0.10868
-0.33997    -0.77638    -0.11338
-0.25955    -0.74484    -0.11808
-0.18505     -0.7011    -0.12278
-0.11831    -0.64624    -0.12748
-0.06099    -0.58161    -0.13217
-0.014497    -0.50883    -0.13686
0.019983    -0.42966    -0.14149
0.041492    -0.34602    -0.14606
0.049294    -0.25973    -0.15065
0.043094    -0.17235    -0.15591
0.02395   -0.084417    -0.16409
-0.074618    0.023824   -0.023166
-0.15712    0.042283   -0.032664
-0.24363    0.049993   -0.038222
-0.33013    0.044177   -0.043073
-0.41444    0.024971   -0.047764
-0.49461  -0.0072148   -0.052442
-0.56874    -0.05157   -0.057129
-0.63501    -0.10699   -0.061823
-0.69178     -0.1721    -0.06652
-0.73766     -0.2453   -0.071218
-0.77152    -0.32478   -0.075916
-0.79252    -0.40858   -0.080614
-0.80014    -0.49463   -0.085311
-0.7942    -0.58082   -0.090009
-0.77484    -0.66501   -0.094707
-0.74254    -0.74513   -0.099404
-0.69809    -0.81921     -0.1041
-0.6426    -0.88542     -0.1088
-0.57743    -0.94213     -0.1135
-0.50418    -0.98793    -0.11819
-0.42467     -1.0217    -0.12289
-0.34085     -1.0426    -0.12759
-0.25479     -1.0501    -0.13229
-0.16861     -1.0441    -0.13699
-0.084438     -1.0247    -0.14168
-0.0043482    -0.99228    -0.14638
0.069684    -0.94776    -0.15108
0.13583    -0.89219    -0.15578
0.19247    -0.82696    -0.16047
0.2382    -0.75366    -0.16517
0.27189    -0.67412    -0.16987
0.29272    -0.59028    -0.17457
0.30017    -0.50422    -0.17926
0.29407    -0.41807    -0.18393
0.27451    -0.33394    -0.18858
0.24179    -0.25389    -0.19328
0.19621    -0.17989     -0.1983
0.13833    -0.11365     -0.2045
0.070847   -0.056415    -0.21287
-0.073846  -0.0097172  -0.0037402
-0.14466   -0.027985  -0.0090986
-0.2165   -0.056665   -0.014652
-0.2835   -0.096017   -0.019543
-0.34339    -0.14537   -0.024225
-0.39471    -0.20349   -0.028895
-0.43626    -0.26892   -0.033581
-0.46706    -0.34006   -0.038277
-0.48633    -0.41515   -0.042974
-0.49362    -0.49232   -0.047672
-0.48874    -0.56969    -0.05237
-0.4718    -0.64533   -0.057068
-0.44324     -0.7174   -0.061766
-0.40374     -0.7841   -0.066463
-0.35429     -0.8438   -0.071161
-0.2961    -0.89502   -0.075858
-0.23062     -0.9365   -0.080556
-0.15944    -0.96722   -0.085254
-0.08434    -0.98642   -0.089951
-0.0071561    -0.99363   -0.094649
0.070204    -0.98866   -0.099347
0.14583    -0.97165    -0.10404
0.21787    -0.94301    -0.10874
0.28453    -0.90344    -0.11344
0.34417    -0.85393    -0.11814
0.39533    -0.79569    -0.12283
0.43675    -0.73016    -0.12753
0.46739    -0.65895    -0.13223
0.48651    -0.58383    -0.13693
0.49364    -0.50663    -0.14163
0.48859    -0.42928    -0.14632
0.4715    -0.35367    -0.15102
0.44279    -0.28167    -0.15573
0.40318    -0.21505    -0.16042
0.35361    -0.15549    -0.16507
0.2952    -0.10449     -0.1696
0.22901   -0.063506    -0.17398
0.1561   -0.033736    -0.17872
0.07827   -0.014911    -0.18591
-0.06561    -0.04668    0.014122
-0.13017    -0.10202    0.014034
-0.18751    -0.16687   0.0091461
-0.23446    -0.23963   0.0041603
-0.26939    -0.31874 -0.00063541
-0.29142     -0.4023  -0.0053464
-0.30005    -0.48826    -0.01004
-0.2951    -0.57451   -0.014733
-0.27672    -0.65892    -0.01943
-0.24535    -0.73941   -0.024127
-0.20176      -0.814   -0.028824
-0.14704    -0.88084   -0.033522
-0.082529     -0.9383    -0.03822
-0.0098187    -0.98495   -0.042917
0.069298     -1.0196   -0.047615
0.15287     -1.0415   -0.052313
0.23884     -1.0501    -0.05701
0.32508      -1.045   -0.061708
0.40947     -1.0265   -0.066406
0.48993    -0.99509   -0.071103
0.56447    -0.95143   -0.075801
0.63126    -0.89664   -0.080498
0.68865    -0.83207   -0.085196
0.73523    -0.75931   -0.089894
0.76984    -0.68015   -0.094591
0.79163    -0.59656   -0.099289
0.80007    -0.51058    -0.10399
0.79494    -0.42434    -0.10868
0.77638    -0.33997    -0.11338
0.74484    -0.25955    -0.11808
0.7011    -0.18505    -0.12278
0.64624    -0.11831    -0.12748
0.58161    -0.06099    -0.13217
0.50883   -0.014497    -0.13686
0.42966    0.019983    -0.14149
0.34602    0.041492    -0.14606
0.25973    0.049294    -0.15065
0.17235    0.043094    -0.15591
0.084417     0.02395    -0.16409
-0.023824   -0.074618   -0.023166
-0.042283    -0.15712   -0.032664
-0.049993    -0.24363   -0.038222
-0.044177    -0.33013   -0.043073
-0.024971    -0.41444   -0.047764
0.0072148    -0.49461   -0.052442
0.05157    -0.56874   -0.057129
0.10699    -0.63501   -0.061823
0.1721    -0.69178    -0.06652
0.2453    -0.73766   -0.071218
0.32478    -0.77152   -0.075916
0.40858    -0.79252   -0.080614
0.49463    -0.80014   -0.085311
0.58082     -0.7942   -0.090009
0.66501    -0.77484   -0.094707
0.74513    -0.74254   -0.099404
0.81921    -0.69809     -0.1041
0.88542     -0.6426     -0.1088
0.94213    -0.57743     -0.1135
0.98793    -0.50418    -0.11819
1.0217    -0.42467    -0.12289
1.0426    -0.34085    -0.12759
1.0501    -0.25479    -0.13229
1.0441    -0.16861    -0.13699
1.0247   -0.084438    -0.14168
0.99228  -0.0043482    -0.14638
0.94776    0.069684    -0.15108
0.89219     0.13583    -0.15578
0.82696     0.19247    -0.16047
0.75366      0.2382    -0.16517
0.67412     0.27189    -0.16987
0.59028     0.29272    -0.17457
0.50422     0.30017    -0.17926
0.41807     0.29407    -0.18393
0.33394     0.27451    -0.18858
0.25389     0.24179    -0.19328
0.17989     0.19621     -0.1983
0.11365     0.13833     -0.2045
0.056415    0.070847    -0.21287
0.0097172   -0.073846  -0.0037402
0.027985    -0.14466  -0.0090986
0.056665     -0.2165   -0.014652
0.096017     -0.2835   -0.019543
0.14537    -0.34339   -0.024225
0.20349    -0.39471   -0.028895
0.26892    -0.43626   -0.033581
0.34006    -0.46706   -0.038277
0.41515    -0.48633   -0.042974
0.49232    -0.49362   -0.047672
0.56969    -0.48874    -0.05237
0.64533     -0.4718   -0.057068
0.7174    -0.44324   -0.061766
0.7841    -0.40374   -0.066463
0.8438    -0.35429   -0.071161
0.89502     -0.2961   -0.075858
0.9365    -0.23062   -0.080556
0.96722    -0.15944   -0.085254
0.98642    -0.08434   -0.089951
0.99363  -0.0071561   -0.094649
0.98866    0.070204   -0.099347
0.97165     0.14583    -0.10404
0.94301     0.21787    -0.10874
0.90344     0.28453    -0.11344
0.85393     0.34417    -0.11814
0.79569     0.39533    -0.12283
0.73016     0.43675    -0.12753
0.65895     0.46739    -0.13223
0.58383     0.48651    -0.13693
0.50663     0.49364    -0.14163
0.42928     0.48859    -0.14632
0.35367      0.4715    -0.15102
0.28167     0.44279    -0.15573
0.21505     0.40318    -0.16042
0.15549     0.35361    -0.16507
0.10449      0.2952     -0.1696
0.063506     0.22901    -0.17398
0.033736      0.1561    -0.17872
0.014911     0.07827    -0.18591
0.04668    -0.06561    0.014122
0.10202    -0.13017    0.014034
0.16687    -0.18751   0.0091461
0.23963    -0.23446   0.0041603
0.31874    -0.26939 -0.00063541