# vtk DataFile Version 3.0
VTK Output
ASCII
DATASET UNSTRUCTURED_GRID

POINTS 1025 float
-0.5        -0.5           0
0.5        -0.5           0
0.5         0.5           0
-0.5         0.5           0
-0.5         -0.5           10
0.5         -0.5           10
0.5          0.5           10
-0.5          0.5           10
-0.25        -0.5           0
-1.3751e-12        -0.5           0
0.25        -0.5           0
0.5       -0.25           0
0.5 -1.3751e-12           0
0.5        0.25           0
0.25         0.5           0
1.3751e-12         0.5           0
-0.25         0.5           0
-0.5        0.25           0
-0.5  1.3751e-12           0
-0.5       -0.25           0
-0.25         -0.5           10
-1.37512e-12         -0.5           10
0.25         -0.5           10
0.5        -0.25           10
0.5 -1.37512e-12           10
0.5         0.25           10
0.25          0.5           10
1.37512e-12          0.5           10
-0.25          0.5           10
-0.5         0.25           10
-0.5  1.37512e-12           10
-0.5        -0.25           10
-0.5        -0.5        0.25
-0.5        -0.5         0.5
-0.5        -0.5        0.75
-0.5        -0.5           1
-0.5        -0.5        1.25
-0.5        -0.5         1.5
-0.5        -0.5        1.75
-0.5        -0.5           2
-0.5        -0.5        2.25
-0.5        -0.5         2.5
-0.5        -0.5        2.75
-0.5        -0.5           3
-0.5        -0.5        3.25
-0.5        -0.5         3.5
-0.5        -0.5        3.75
-0.5        -0.5           4
-0.5        -0.5        4.25
-0.5        -0.5         4.5
-0.5        -0.5        4.75
-0.5        -0.5           5
-0.5        -0.5        5.25
-0.5        -0.5         5.5
-0.5        -0.5        5.75
-0.5        -0.5           6
-0.5        -0.5        6.25
-0.5        -0.5         6.5
-0.5        -0.5        6.75
-0.5        -0.5           7
-0.5        -0.5        7.25
-0.5        -0.5         7.5
-0.5        -0.5        7.75
-0.5        -0.5           8
-0.5        -0.5        8.25
-0.5        -0.5         8.5
-0.5        -0.5        8.75
-0.5        -0.5           9
-0.5        -0.5        9.25
-0.5        -0.5         9.5
-0.5        -0.5        9.75
0.5        -0.5        0.25
0.5        -0.5         0.5
0.5        -0.5        0.75
0.5        -0.5           1
0.5        -0.5        1.25
0.5        -0.5         1.5
0.5        -0.5        1.75
0.5        -0.5           2
0.5        -0.5        2.25
0.5        -0.5         2.5
0.5        -0.5        2.75
0.5        -0.5           3
0.5        -0.5        3.25
0.5        -0.5         3.5
0.5        -0.5        3.75
0.5        -0.5           4
0.5        -0.5        4.25
0.5        -0.5         4.5
0.5        -0.5        4.75
0.5        -0.5           5
0.5        -0.5        5.25
0.5        -0.5         5.5
0.5        -0.5        5.75
0.5        -0.5           6
0.5        -0.5        6.25
0.5        -0.5         6.5
0.5        -0.5        6.75
0.5        -0.5           7
0.5        -0.5        7.25
0.5        -0.5         7.5
0.5        -0.5        7.75
0.5        -0.5           8
0.5        -0.5        8.25
0.5        -0.5         8.5
0.5        -0.5        8.75
0.5        -0.5           9
0.5        -0.5        9.25
0.5        -0.5         9.5
0.5        -0.5        9.75
0.5         0.5        0.25
0.5         0.5         0.5
0.5         0.5        0.75
0.5         0.5           1
0.5         0.5        1.25
0.5         0.5         1.5
0.5         0.5        1.75
0.5         0.5           2
0.5         0.5        2.25
0.5         0.5         2.5
0.5         0.5        2.75
0.5         0.5           3
0.5         0.5        3.25
0.5         0.5         3.5
0.5         0.5        3.75
0.5         0.5           4
0.5         0.5        4.25
0.5         0.5         4.5
0.5         0.5        4.75
0.5         0.5           5
0.5         0.5        5.25
0.5         0.5         5.5
0.5         0.5        5.75
0.5         0.5           6
0.5         0.5        6.25
0.5         0.5         6.5
0.5         0.5        6.75
0.5         0.5           7
0.5         0.5        7.25
0.5         0.5         7.5
0.5         0.5        7.75
0.5         0.5           8
0.5         0.5        8.25
0.5         0.5         8.5
0.5         0.5        8.75
0.5         0.5           9
0.5         0.5        9.25
0.5         0.5         9.5
0.5         0.5        9.75
-0.5         0.5        0.25
-0.5         0.5         0.5
-0.5         0.5        0.75
-0.5         0.5           1
-0.5         0.5        1.25
-0.5         0.5         1.5
-0.5         0.5        1.75
-0.5         0.5           2
-0.5         0.5        2.25
-0.5         0.5         2.5
-0.5         0.5        2.75
-0.5         0.5           3
-0.5         0.5        3.25
-0.5         0.5         3.5
-0.5         0.5        3.75
-0.5         0.5           4
-0.5         0.5        4.25
-0.5         0.5         4.5
-0.5         0.5        4.75
-0.5         0.5           5
-0.5         0.5        5.25
-0.5         0.5         5.5
-0.5         0.5        5.75
-0.5         0.5           6
-0.5         0.5        6.25
-0.5         0.5         6.5
-0.5         0.5        6.75
-0.5         0.5           7
-0.5         0.5        7.25
-0.5         0.5         7.5
-0.5         0.5        7.75
-0.5         0.5           8
-0.5         0.5        8.25
-0.5         0.5         8.5
-0.5         0.5        8.75
-0.5         0.5           9
-0.5         0.5        9.25
-0.5         0.5         9.5
-0.5         0.5        9.75
-0.25       -0.25           0
-0.25  6.8756e-13           0
-0.25        0.25           0
-6.8756e-13       -0.25           0
-3.7821e-24           0           0
6.8756e-13        0.25           0
0.25       -0.25           0
0.25 -6.8756e-13           0
0.25        0.25           0
-0.25        -0.5        0.25
-0.25        -0.5         0.5
-0.25        -0.5        0.75
-0.25        -0.5           1
-0.25        -0.5        1.25
-0.25        -0.5         1.5
-0.25        -0.5        1.75
-0.25        -0.5           2
-0.25        -0.5        2.25
-0.25        -0.5         2.5
-0.25        -0.5        2.75
-0.25        -0.5           3
-0.25        -0.5        3.25
-0.25        -0.5         3.5
-0.25        -0.5        3.75
-0.25        -0.5           4
-0.25        -0.5        4.25
-0.25        -0.5         4.5
-0.25        -0.5        4.75
-0.25        -0.5           5
-0.25        -0.5        5.25
-0.25        -0.5         5.5
-0.25        -0.5        5.75
-0.25        -0.5           6
-0.25        -0.5        6.25
-0.25        -0.5         6.5
-0.25        -0.5        6.75
-0.25        -0.5           7
-0.25        -0.5        7.25
-0.25        -0.5         7.5
-0.25        -0.5        7.75
-0.25        -0.5           8
-0.25        -0.5        8.25
-0.25        -0.5         8.5
-0.25        -0.5        8.75
-0.25        -0.5           9
-0.25        -0.5        9.25
-0.25        -0.5         9.5
-0.25        -0.5        9.75
-1.3751e-12        -0.5        0.25
-1.3751e-12        -0.5         0.5
-1.3751e-12        -0.5        0.75
-1.3751e-12        -0.5           1
-1.3751e-12        -0.5        1.25
-1.3751e-12        -0.5         1.5
-1.3751e-12        -0.5        1.75
-1.3751e-12        -0.5           2
-1.3751e-12        -0.5        2.25
-1.3751e-12        -0.5         2.5
-1.3751e-12        -0.5        2.75
-1.3751e-12        -0.5           3
-1.3751e-12        -0.5        3.25
-1.3751e-12        -0.5         3.5
-1.3751e-12        -0.5        3.75
-1.3751e-12        -0.5           4
-1.3751e-12        -0.5        4.25
-1.3751e-12        -0.5         4.5
-1.3751e-12        -0.5        4.75
-1.3751e-12        -0.5           5
-1.3751e-12        -0.5        5.25
-1.3751e-12        -0.5         5.5
-1.3751e-12        -0.5        5.75
-1.3751e-12        -0.5           6
-1.3751e-12        -0.5        6.25
-1.3751e-12        -0.5         6.5
-1.3751e-12        -0.5        6.75
-1.3751e-12        -0.5           7
-1.3751e-12        -0.5        7.25
-1.3751e-12        -0.5         7.5
-1.3751e-12        -0.5        7.75
-1.3751e-12        -0.5           8
-1.3751e-12        -0.5        8.25
-1.3751e-12        -0.5         8.5
-1.3751e-12        -0.5        8.75
-1.3751e-12        -0.5           9
-1.3751e-12        -0.5        9.25
-1.3751e-12        -0.5         9.5
-1.3751e-12        -0.5        9.75
0.25        -0.5        0.25
0.25        -0.5         0.5
0.25        -0.5        0.75
0.25        -0.5           1
0.25        -0.5        1.25
0.25        -0.5         1.5
0.25        -0.5        1.75
0.25        -0.5           2
0.25        -0.5        2.25
0.25        -0.5         2.5
0.25        -0.5        2.75
0.25        -0.5           3
0.25        -0.5        3.25
0.25        -0.5         3.5
0.25        -0.5        3.75
0.25        -0.5           4
0.25        -0.5        4.25
0.25        -0.5         4.5
0.25        -0.5        4.75
0.25        -0.5           5
0.25        -0.5        5.25
0.25        -0.5         5.5
0.25        -0.5        5.75
0.25        -0.5           6
0.25        -0.5        6.25
0.25        -0.5         6.5
0.25        -0.5        6.75
0.25        -0.5           7
0.25        -0.5        7.25
0.25        -0.5         7.5
0.25        -0.5        7.75
0.25        -0.5           8
0.25        -0.5        8.25
0.25        -0.5         8.5
0.25        -0.5        8.75
0.25        -0.5           9
0.25        -0.5        9.25
0.25        -0.5         9.5
0.25        -0.5        9.75
0.5       -0.25        0.25
0.5       -0.25         0.5
0.5       -0.25        0.75
0.5       -0.25           1
0.5       -0.25        1.25
0.5       -0.25         1.5
0.5       -0.25        1.75
0.5       -0.25           2
0.5       -0.25        2.25
0.5       -0.25         2.5
0.5       -0.25        2.75
0.5       -0.25           3
0.5       -0.25        3.25
0.5       -0.25         3.5
0.5       -0.25        3.75
0.5       -0.25           4
0.5       -0.25        4.25
[...]
POINT_DATA 1025
VECTORS displacement double
0  0  0
0  0  0
0  0  0
0  0  0
-0.20711         0.5    -0.70571
-0.5    -0.20711    -0.70571
0.20711        -0.5    -0.70571
0.5     0.20711    -0.70571
0  0  0
0  0  0
0  0  0
0  0  0
0  0  0
0  0  0
0  0  0
0  0  0
0  0  0
0  0  0
0  0  0
0  0  0
-0.28033     0.32322    -0.71206
-0.35355     0.14645    -0.65345
-0.42678    -0.03033    -0.61399
-0.32322    -0.28033    -0.71206
-0.14645    -0.35355    -0.65345
0.03033    -0.42678    -0.61399
0.28033    -0.32322    -0.71206
0.35355    -0.14645    -0.65345
0.42678     0.03033    -0.61399
0.32322     0.28033    -0.71206
0.14645     0.35355    -0.65345
-0.03033     0.42678    -0.61399
0.14679   -0.077055  -0.0035644
0.32768      -0.146   -0.022957
0.52415    -0.16483   -0.042799
0.71814    -0.12849   -0.060622
0.89211   -0.038324   -0.076495
1.0315    0.097906   -0.091435
1.1251     0.26841    -0.10619
1.1653     0.45867    -0.12102
1.1489     0.65248    -0.13593
1.0772     0.83335    -0.15087
0.95634     0.98582    -0.16582
0.79661      1.0969    -0.18077
0.6116      1.1571    -0.19571
0.41708      1.1614    -0.21066
0.22963      1.1092     -0.2256
0.065219      1.0052    -0.24054
-0.062149     0.85814    -0.25548
-0.14162     0.68055    -0.27043
-0.16642     0.48757    -0.28537
-0.13444     0.29566    -0.30031
-0.048405     0.12115    -0.31525
0.084359   -0.021071     -0.3302
0.25254     -0.1189    -0.34514
0.4418    -0.16399    -0.36008
0.63602    -0.15251    -0.37503
0.81865   -0.085435    -0.38997
0.97413    0.031523    -0.40491
1.0892      0.1884    -0.41985
1.1541     0.37183    -0.43479
1.1632      0.5662    -0.44976
1.1158     0.75495    -0.46475
1.0161     0.92197    -0.47975
0.87255       1.053    -0.49462
0.69776      1.1371      -0.509
0.50638      1.1666    -0.52258
0.31344      1.1375    -0.53615
0.13343      1.0466    -0.55409
-0.017969     0.89542    -0.58625
-0.12637     0.70062    -0.63841
0.077055     0.14679  -0.0035644
0.146     0.32768   -0.022957
0.16483     0.52415   -0.042799
0.12849     0.71814   -0.060622
0.038324     0.89211   -0.076495
-0.097906      1.0315   -0.091435
-0.26841      1.1251    -0.10619
-0.45867      1.1653    -0.12102
-0.65248      1.1489    -0.13593
-0.83335      1.0772    -0.15087
-0.98582     0.95634    -0.16582
-1.0969     0.79661    -0.18077
-1.1571      0.6116    -0.19571
-1.1614     0.41708    -0.21066
-1.1092     0.22963     -0.2256
-1.0052    0.065219    -0.24054
-0.85814   -0.062149    -0.25548
-0.68055    -0.14162    -0.27043
-0.48757    -0.16642    -0.28537
-0.29566    -0.13444    -0.30031
-0.12115   -0.048405    -0.31525
0.021071    0.084359     -0.3302
0.1189     0.25254    -0.34514
0.16399      0.4418    -0.36008
0.15251     0.63602    -0.37503
0.085435     0.81865    -0.38997
-0.031523     0.97413    -0.40491
-0.1884      1.0892    -0.41985
-0.37183      1.1541    -0.43479
-0.5662      1.1632    -0.44976
-0.75495      1.1158    -0.46475
-0.92197      1.0161    -0.47975
-1.053     0.87255    -0.49462
-1.1371     0.69776      -0.509
-1.1666     0.50638    -0.52258
-1.1375     0.31344    -0.53615
-1.0466     0.13343    -0.55409
-0.89542   -0.017969    -0.58625
-0.70062    -0.12637    -0.63841
-0.14679    0.077055  -0.0035644
-0.32768       0.146   -0.022957
-0.52415     0.16483   -0.042799
-0.71814     0.12849   -0.060622
-0.89211    0.038324   -0.076495
-1.0315   -0.097906   -0.091435
-1.1251    -0.26841    -0.10619
-1.1653    -0.45867    -0.12102
-1.1489    -0.65248    -0.13593
-1.0772    -0.83335    -0.15087
-0.95634    -0.98582    -0.16582
-0.79661     -1.0969    -0.18077
-0.6116     -1.1571    -0.19571
-0.41708     -1.1614    -0.21066
-0.22963     -1.1092     -0.2256
-0.065219     -1.0052    -0.24054
0.062149    -0.85814    -0.25548
0.14162    -0.68055    -0.27043
0.16642    -0.48757    -0.28537
0.13444    -0.29566    -0.30031
0.048405    -0.12115    -0.31525
-0.084359    0.021071     -0.3302
-0.25254      0.1189    -0.34514
-0.4418     0.16399    -0.36008
-0.63602     0.15251    -0.37503
-0.81865    0.085435    -0.38997
-0.97413   -0.031523    -0.40491
-1.0892     -0.1884    -0.41985
-1.1541    -0.37183    -0.43479
-1.1632     -0.5662    -0.44976
-1.1158    -0.75495    -0.46475
-1.0161    -0.92197    -0.47975
-0.87255      -1.053    -0.49462
-0.69776     -1.1371      -0.509
-0.50638     -1.1666    -0.52258
-0.31344     -1.1375    -0.53615
-0.13343     -1.0466    -0.55409
0.017969    -0.89542    -0.58625
0.12637    -0.70062    -0.63841
-0.077055    -0.14679  -0.0035644
-0.146    -0.32768   -0.022957
-0.16483    -0.52415   -0.042799
-0.12849    -0.71814   -0.060622
-0.038324    -0.89211   -0.076495
0.097906     -1.0315   -0.091435
0.26841     -1.1251    -0.10619
0.45867     -1.1653    -0.12102
0.65248     -1.1489    -0.13593
0.83335     -1.0772    -0.15087
0.98582    -0.95634    -0.16582
1.0969    -0.79661    -0.18077
1.1571     -0.6116    -0.19571
1.1614    -0.41708    -0.21066
1.1092    -0.22963     -0.2256
1.0052   -0.065219    -0.24054
0.85814    0.062149    -0.25548
0.68055     0.14162    -0.27043
0.48757     0.16642    -0.28537
0.29566     0.13444    -0.30031
0.12115    0.048405    -0.31525
-0.021071   -0.084359     -0.3302
-0.1189    -0.25254    -0.34514
-0.16399     -0.4418    -0.36008
-0.15251    -0.63602    -0.37503
-0.085435    -0.81865    -0.38997
0.031523    -0.97413    -0.40491
0.1884     -1.0892    -0.41985
0.37183     -1.1541    -0.43479
0.5662     -1.1632    -0.44976
0.75495     -1.1158    -0.46475
0.92197     -1.0161    -0.47975
1.053    -0.87255    -0.49462
1.1371    -0.69776      -0.509
1.1666    -0.50638    -0.52258
1.1375    -0.31344    -0.53615
1.0466    -0.13343    -0.55409
0.89542    0.017969    -0.58625
0.70062     0.12637    -0.63841
0  0  0
0  0  0
0  0  0
0  0  0
0  0  0
0  0  0
0  0  0
0  0  0
0  0  0
0.12983   -0.025317   -0.045167
0.27958   -0.028081   -0.070382
0.43241   0.0059423   -0.089543
0.56951    0.081214    -0.10582
0.678     0.19187    -0.12081
0.74914     0.32865    -0.13554
0.77746     0.47998    -0.15034
0.76079     0.63305    -0.16524
0.7006     0.77484    -0.18018
0.60204     0.89324    -0.19513
0.47348     0.97814    -0.21008
0.32588      1.0223    -0.22502
0.17182       1.022    -0.23997
0.024416     0.97715    -0.25491
-0.10376     0.89168    -0.26985
-0.2018     0.77284     -0.2848
-0.26134     0.63075    -0.29974
-0.27731     0.47752    -0.31468
-0.24836      0.3262    -0.32962
-0.17694      0.1897    -0.34457
-0.069142    0.079628    -0.35951
0.065846   0.0053776    -0.37445
0.21652   -0.026729    -0.38939
0.37006   -0.013956    -0.40434
0.51336    0.042608    -0.41928
0.63422     0.13814    -0.43422
0.72234     0.26451    -0.44916
0.77022     0.41094    -0.46411
0.77377     0.56497    -0.47905
0.73267     0.71346    -0.49401
0.65044     0.84377    -0.50898
0.53414     0.94482    -0.52393
0.39383      1.0081    -0.53876
0.24155      1.0284    -0.55331
0.090143      1.0038    -0.56764
-0.047574     0.93445    -0.58271
-0.15826     0.82097     -0.6018
-0.22794     0.66755    -0.63074
-0.25325     0.49752    -0.66506
0.12154    0.027964  -0.0081767
0.23997    0.085534    -0.02554
0.34977     0.17532   -0.045131
0.43041     0.29196   -0.061706
0.47308     0.42594   -0.076675
0.47462     0.56585    -0.09132
0.43547     0.70001    -0.10608
0.3592     0.81715    -0.12098
0.25233     0.90732    -0.13592
0.12395     0.96282    -0.15088
-0.014984      0.9789    -0.16583
-0.15264     0.95417    -0.18077
-0.27729     0.89074    -0.19571
-0.37832     0.79402    -0.21066
-0.4471     0.67225     -0.2256
-0.4778      0.5358    -0.24054
-0.46778      0.3963    -0.25548
-0.41791     0.26564    -0.27043
-0.33242     0.15494    -0.28537
-0.21862    0.073647    -0.30031
-0.086187    0.028679    -0.31525
0.05359     0.02387     -0.3302
0.1888    0.059629    -0.34514
0.30792     0.13291    -0.36008
0.40081     0.23747    -0.37503
0.45955     0.36439    -0.38997
0.47913     0.50287    -0.40491
0.45789     0.64111    -0.41985
0.39762     0.76732    -0.43479
0.30347     0.87076    -0.44973
0.18343      0.9426    -0.46471
0.047778     0.97676    -0.47973
-0.091859     0.97043    -0.49478
-0.22349     0.92438    -0.50961
-0.33588     0.84262    -0.52366
-0.41912     0.73114    -0.53617
-0.46423     0.59649    -0.54779
-0.46306     0.44359    -0.56632
-0.41209     0.28723    -0.60267
0.10176    0.093802    0.020826
0.19252      0.2124    0.016104
0.25487     0.35475  0.00052632
0.27617     0.50924   -0.016098
0.25173     0.66227   -0.031877
0.18374     0.80074   -0.046999
0.078528     0.91321   -0.061893
-0.054718      0.9904   -0.076772
-0.20461      1.0259   -0.091686
-0.35838      1.0165    -0.10662
-0.50293     0.96324    -0.12157
-0.62593     0.87046    -0.13651
-0.71689     0.74612    -0.15146
-0.76808     0.60081     -0.1664
-0.77511     0.44691    -0.18134
-0.73741     0.29753    -0.19629
-0.65818     0.16541    -0.21123
-0.54417     0.06179    -0.22617
-0.40509  -0.0044898    -0.24111
-0.2528   -0.027784    -0.25606
-0.10028  -0.0061095      -0.271
0.039496    0.058688    -0.28594
0.1546     0.16109    -0.30088
0.23523     0.29236    -0.31583
0.27452     0.44133    -0.33077
0.26912      0.5953    -0.34571
0.21948     0.74114    -0.36065
0.12985     0.86644     -0.3756
0.0078392     0.96052    -0.39054
-0.13615      1.0154    -0.40548
-0.28986      1.0263    -0.42045
-0.44018     0.99239    -0.43545
-0.57426     0.91672    -0.45046
-0.68063      0.8059    -0.46529
-0.75008     0.66942    -0.47955
-0.77592     0.51809    -0.49291
-0.75311      0.3621    -0.50655
-0.67799     0.21106    -0.52562
-0.55445    0.074363    -0.56448
0.025317     0.12983   -0.045167
0.028081     0.27958   -0.070382
-0.0059423     0.43241   -0.089543
-0.081214     0.56951    -0.10582
-0.19187       0.678    -0.12081
-0.32865     0.74914    -0.13554
-0.47998     0.77746    -0.15034
-0.63305     0.76079    -0.16524
-0.77484      0.7006    -0.18018
-0.89324     0.60204    -0.19513
-0.97814     0.47348    -0.21008
-1.0223     0.32588    -0.22502
-1.022     0.17182    -0.23997
-0.97715    0.024416    -0.25491
-0.89168    -0.10376    -0.26985
-0.77284     -0.2018     -0.2848
-0.63075    -0.26134    -0.29974
-0.47752    -0.27731    -0.31468
-0.3262    -0.24836    -0.32962
-0.1897    -0.17694    -0.34457
-0.079628   -0.069142    -0.35951
-0.0053776    0.065846    -0.37445
0.026729     0.21652    -0.38939
0.013956     0.37006    -0.40434
-0.042608     0.51336    -0.41928
-0.13814     0.63422    -0.43422
-0.26451     0.72234    -0.44916
-0.41094     0.77022    -0.46411
-0.56497     0.77377    -0.47905
-0.71346     0.73267    -0.49401
-0.84377     0.65044    -0.50898
-0.94482     0.53414    -0.52393
-1.0081     0.39383    -0.53876
-1.0284     0.24155    -0.55331
-1.0038    0.090143    -0.56764
-0.93445   -0.047574    -0.58271
-0.82097    -0.15826     -0.6018
-0.66755    -0.22794    -0.63074
-0.49752    -0.25325    -0.66506
-0.027964     0.12154  -0.0081767
-0.085534     0.23997    -0.02554
-0.17532     0.34977   -0.045131
-0.29196     0.43041   -0.061706
-0.42594     0.47308   -0.076675
-0.56585     0.47462    -0.09132
-0.70001     0.43547    -0.10608
-0.81715      0.3592    -0.12098
-0.90732     0.25233    -0.13592
-0.96282     0.12395    -0.15088
-0.9789   -0.014984    -0.16583
-0.95417    -0.15264    -0.18077
-0.89074    -0.27729    -0.19571
-0.79402    -0.37832    -0.21066
-0.67225     -0.4471     -0.2256
-0.5358     -0.4778    -0.24054
-0.3963    -0.46778    -0.25548
-0.26564    -0.41791    -0.27043
-0.15494    -0.33242    -0.28537
-0.073647    -0.21862    -0.30031
-0.028679   -0.086187    -0.31525
-0.02387     0.05359     -0.3302
-0.059629      0.1888    -0.34514
-0.13291     0.30792    -0.36008
-0.23747     0.40081    -0.37503
-0.36439     0.45955    -0.38997
-0.50287     0.47913    -0.40491
-0.64111     0.45789    -0.41985
-0.76732     0.39762    -0.43479
-0.87076     0.30347    -0.44973
-0.9426     0.18343    -0.46471
-0.97676    0.047778    -0.47973
-0.97043   -0.091859    -0.49478
-0.92438    -0.22349    -0.50961
-0.84262    -0.33588    -0.52366
-0.73114    -0.41912    -0.53617
-0.59649    -0.46423    -0.54779
-0.44359    -0.46306    -0.56632
-0.28723    -0.41209    -0.60267
-0.093802     0.10176    0.020826
-0.2124     0.19252    0.016104
-0.35475     0.25487  0.00052632
-0.50924     0.27617   -0.016098
-0.66227     0.25173   -0.031877
-0.80074     0.18374   -0.046999
-0.91321    0.078528   -0.061893
-0.9904   -0.054718   -0.076772
-1.0259    -0.20461   -0.091686
-1.0165    -0.35838    -0.10662
-0.96324    -0.50293    -0.12157
-0.87046    -0.62593    -0.13651
-0.74612    -0.71689    -0.15146
-0.60081    -0.76808     -0.1664
-0.44691    -0.77511    -0.18134
-0.29753    -0.73741    -0.19629
-0.16541    -0.65818    -0.21123
-0.06179    -0.54417    -0.22617
0.0044898    -0.40509    -0.24111
0.027784     -0.2528    -0.25606
0.0061095    -0.10028      -0.271
-0.058688    0.039496    -0.28594
-0.16109      0.1546    -0.30088
-0.29236     0.23523    -0.31583
-0.44133     0.27452    -0.33077
-0.5953     0.26912    -0.34571
-0.74114     0.21948    -0.36065
-0.86644     0.12985     -0.3756
-0.96052   0.0078392    -0.39054
-1.0154    -0.13615    -0.40548
-1.0263    -0.28986    -0.42045
-0.99239    -0.44018    -0.43545
-0.91672    -0.57426    -0.45046
-0.8059    -0.68063    -0.46529
-0.66942    -0.75008    -0.47955
-0.51809    -0.77592    -0.49291
-0.3621    -0.75311    -0.50655
-0.21106    -0.67799    -0.52562
-0.074363    -0.55445    -0.56448
-0.12983    0.025317   -0.045167
-0.27958    0.028081   -0.070382
-0.43241  -0.0059423   -0.089543
-0.56951   -0.081214    -0.10582
-0.678    -0.19187    -0.12081
-0.74914    -0.32865    -0.13554
-0.77746    -0.47998    -0.15034
-0.76079    -0.63305    -0.16524
-0.7006    -0.77484    -0.18018
-0.60204    -0.89324    -0.19513
-0.47348    -0.97814    -0.21008
-0.32588     -1.0223    -0.22502
-0.17182      -1.022    -0.23997
-0.024416    -0.97715    -0.25491
0.10376    -0.89168    -0.26985
0.2018    -0.77284     -0.2848
0.26134    -0.63075    -0.29974
0.27731    -0.47752    -0.31468
0.24836     -0.3262    -0.32962
0.17694     -0.1897    -0.34457
0.069142   -0.079628    -0.35951
-0.065846  -0.0053776    -0.37445
-0.21652    0.026729    -0.38939
-0.37006    0.013956    -0.40434
-0.51336   -0.042608    -0.41928
-0.63422    -0.13814    -0.43422
-0.72234    -0.26451    -0.44916
-0.77022    -0.41094    -0.46411
-0.77377    -0.56497    -0.47905
-0.73267    -0.71346    -0.49401
-0.65044    -0.84377    -0.50898
-0.53414    -0.94482    -0.52393
-0.39383     -1.0081    -0.53876
-0.24155     -1.0284    -0.55331
-0.090143     -1.0038    -0.56764
0.047574    -0.93445    -0.58271
0.15826    -0.82097     -0.6018
0.22794    -0.66755    -0.63074
0.25325    -0.49752    -0.66506
-0.12154   -0.027964  -0.0081767
-0.23997   -0.085534    -0.02554
-0.34977    -0.17532   -0.045131
-0.43041    -0.29196   -0.061706
-0.47308    -0.42594   -0.076675
-0.47462    -0.56585    -0.09132
-0.43547    -0.70001    -0.10608
-0.3592    -0.81715    -0.12098
-0.25233    -0.90732    -0.13592
-0.12395    -0.96282    -0.15088
0.014984     -0.9789    -0.16583
0.15264    -0.95417    -0.18077
0.27729    -0.89074    -0.19571
0.37832    -0.79402    -0.21066
0.4471    -0.67225     -0.2256
0.4778     -0.5358    -0.24054
0.46778     -0.3963    -0.25548
0.41791    -0.26564    -0.27043
0.33242    -0.15494    -0.28537
0.21862   -0.073647    -0.30031
0.086187   -0.028679    -0.31525
-0.05359    -0.02387     -0.3302
-0.1888   -0.059629    -0.34514
-0.30792    -0.13291    -0.36008
-0.40081    -0.23747    -0.37503
-0.45955    -0.36439    -0.38997
-0.47913    -0.50287    -0.40491
-0.45789    -0.64111    -0.41985
-0.39762    -0.76732    -0.43479
-0.30347    -0.87076    -0.44973
-0.18343     -0.9426    -0.46471
-0.047778    -0.97676    -0.47973
0.091859    -0.97043    -0.49478
0.22349    -0.92438    -0.50961
0.33588    -0.84262    -0.52366
0.41912    -0.73114    -0.53617
0.46423    -0.59649    -0.54779
0.46306    -0.44359    -0.56632
0.41209    -0.28723    -0.60267
-0.10176   -0.093802    0.020826
-0.19252     -0.2124    0.016104
-0.25487    -0.35475  0.00052632
-0.27617    -0.50924   -0.016098
-0.25173    -0.66227   -0.031877
-0.18374    -0.80074   -0.046999
-0.078528    -0.91321   -0.061893
0.054718     -0.9904   -0.076772
0.20461     -1.0259   -0.091686
0.35838     -1.0165    -0.10662
0.50293    -0.96324    -0.12157
0.62593    -0.87046    -0.13651
0.71689    -0.74612    -0.15146
0.76808    -0.60081     -0.1664
0.77511    -0.44691    -0.18134
0.73741    -0.29753    -0.19629
0.65818    -0.16541    -0.21123
0.54417    -0.06179    -0.22617
0.40509   0.0044898    -0.24111
0.2528    0.027784    -0.25606
0.10028   0.0061095      -0.271
-0.039496   -0.058688    -0.28594
-0.1546    -0.16109    -0.30088
-0.23523    -0.29236    -0.31583
-0.27452    -0.44133    -0.33077
-0.26912     -0.5953    -0.34571
-0.21948    -0.74114    -0.36065
-0.12985    -0.86644     -0.3756
-0.0078392    -0.96052    -0.39054
0.13615     -1.0154    -0.40548
0.28986     -1.0263    -0.42045
0.44018    -0.99239    -0.43545
0.57426    -0.91672    -0.45046
0.68063     -0.8059    -0.46529
0.75008    -0.66942    -0.47955
0.77592    -0.51809    -0.49291
0.75311     -0.3621    -0.50655
0.67799    -0.21106    -0.52562
0.55445   -0.074363    -0.56448
-0.025317    -0.12983   -0.045167
-0.028081    -0.27958   -0.070382
0.0059423    -0.43241   -0.089543
0.081214    -0.56951    -0.10582
0.19187      -0.678    -0.12081
0.32865    -0.74914    -0.13554
0.47998    -0.77746    -0.15034
0.63305    -0.76079    -0.16524
0.77484     -0.7006    -0.18018
0.89324    -0.60204    -0.19513
0.97814    -0.47348    -0.21008
1.0223    -0.32588    -0.22502
1.022    -0.17182    -0.23997
0.97715   -0.024416    -0.25491
0.89168     0.10376    -0.26985
0.77284      0.2018     -0.2848
0.63075     0.26134    -0.29974
0.47752     0.27731    -0.31468
0.3262     0.24836    -0.32962
0.1897     0.17694    -0.34457
0.079628    0.069142    -0.35951
0.0053776   -0.065846    -0.37445
-0.026729    -0.21652    -0.38939
-0.013956    -0.37006    -0.40434
0.042608    -0.51336    -0.41928
0.13814    -0.63422    -0.43422
0.26451    -0.72234    -0.44916
0.41094    -0.77022    -0.46411
0.56497    -0.77377    -0.47905
0.71346    -0.73267    -0.49401
0.84377    -0.65044    -0.50898
0.94482    -0.53414    -0.52393
1.0081    -0.39383    -0.53876
1.0284    -0.24155    -0.55331
1.0038   -0.090143    -0.56764
0.93445    0.047574    -0.58271
0.82097     0.15826     -0.6018
0.66755     0.22794    -0.63074
0.49752     0.25325    -0.66506
0.027964    -0.12154  -0.0081767
0.085534    -0.23997    -0.02554
0.17532    -0.34977   -0.045131
0.29196    -0.43041   -0.061706
0.42594    -0.47308   -0.076675
0.56585    -0.47462    -0.09132
0.70001    -0.43547    -0.10608
0.81715     -0.3592    -0.12098
0.90732    -0.25233    -0.13592
0.96282    -0.12395    -0.15088
0.9789    0.014984    -0.16583
0.95417     0.15264    -0.18077
0.89074     0.27729    -0.19571
0.79402     0.37832    -0.21066
0.67225      0.4471     -0.2256
0.5358      0.4778    -0.24054
0.3963     0.46778    -0.25548
0.26564     0.41791    -0.27043
0.15494     0.33242    -0.28537
0.073647     0.21862    -0.30031
0.028679    0.086187    -0.31525
0.02387    -0.05359     -0.3302
0.059629     -0.1888    -0.34514
0.13291    -0.30792    -0.36008
0.23747    -0.40081    -0.37503
0.36439    -0.45955    -0.38997
0.50287    -0.47913    -0.40491
0.64111    -0.45789    -0.41985
0.76732    -0.39762    -0.43479
0.87076    -0.30347    -0.44973
0.9426    -0.18343    -0.46471
0.97676   -0.047778    -0.47973
0.97043    0.091859    -0.49478
0.92438     0.22349    -0.50961
0.84262     0.33588    -0.52366
0.73114     0.41912    -0.53617
0.59649     0.46423    -0.54779
0.44359     0.46306    -0.56632
0.28723     0.41209    -0.60267
0.093802    -0.10176    0.020826
0.2124    -0.19252    0.016104
0.35475    -0.25487  0.00052632
0.50924    -0.27617   -0.016098
0.66227    -0.25173   -0.031877
0.80074    -0.18374   -0.046999
0.91321   -0.078528   -0.061893