# vtk DataFile Version 3.0
VTK Output
ASCII
DATASET UNSTRUCTURED_GRID

POINTS 1025 float
-0.5        -0.5           0
0.5        -0.5           0
0.5         0.5           0
-0.5         0.5           0
-0.5         -0.5           10
0.5         -0.5           10
0.5          0.5           10
-0.5          0.5           10
-0.25        -0.5           0
-1.3751e-12        -0.5           0
0.25        -0.5           0
0.5       -0.25           0
0.5 -1.3751e-12           0
0.5        0.25           0
0.25         0.5           0
1.3751e-12         0.5           0
-0.25         0.5           0
-0.5        0.25           0
-0.5  1.3751e-12           0
-0.5       -0.25           0
-0.25         -0.5           10
-1.37512e-12         -0.5           10
0.25         -0.5           10
0.5        -0.25           10
0.5 -1.37512e-12           10
0.5         0.25           10
0.25          0.5           10
1.37512e-12          0.5           10
-0.25          0.5           10
-0.5         0.25           10
-0.5  1.37512e-12           10
-0.5        -0.25           10
-0.5        -0.5        0.25
-0.5        -0.5         0.5
-0.5        -0.5        0.75
-0.5        -0.5           1
-0.5        -0.5        1.25
-0.5        -0.5         1.5
-0.5        -0.5        1.75
-0.5        -0.5           2
-0.5        -0.5        2.25
-0.5        -0.5         2.5
-0.5        -0.5        2.75
-0.5        -0.5           3
-0.5        -0.5        3.25
-0.5        -0.5         3.5
-0.5        -0.5        3.75
-0.5        -0.5           4
-0.5        -0.5        4.25
-0.5        -0.5         4.5
-0.5        -0.5        4.75
-0.5        -0.5           5
-0.5        -0.5        5.25
-0.5        -0.5         5.5
-0.5        -0.5        5.75
-0.5        -0.5           6
-0.5        -0.5        6.25
-0.5        -0.5         6.5
-0.5        -0.5        6.75
-0.5        -0.5           7
-0.5        -0.5        7.25
-0.5        -0.5         7.5
-0.5        -0.5        7.75
-0.5        -0.5           8
-0.5        -0.5        8.25
-0.5        -0.5         8.5
-0.5        -0.5        8.75
-0.5        -0.5           9
-0.5        -0.5        9.25
-0.5        -0.5         9.5
-0.5        -0.5        9.75
0.5        -0.5        0.25
0.5        -0.5         0.5
0.5        -0.5        0.75
0.5        -0.5           1
0.5        -0.5        1.25
0.5        -0.5         1.5
0.5        -0.5        1.75
0.5        -0.5           2
0.5        -0.5        2.25
0.5        -0.5         2.5
0.5        -0.5        2.75
0.5        -0.5           3
0.5        -0.5        3.25
0.5        -0.5         3.5
0.5        -0.5        3.75
0.5        -0.5           4
0.5        -0.5        4.25
0.5        -0.5         4.5
0.5        -0.5        4.75
0.5        -0.5           5
0.5        -0.5        5.25
0.5        -0.5         5.5
0.5        -0.5        5.75
0.5        -0.5           6
0.5        -0.5        6.25
0.5        -0.5         6.5
0.5        -0.5        6.75
0.5        -0.5           7
0.5        -0.5        7.25
0.5        -0.5         7.5
0.5        -0.5        7.75
0.5        -0.5           8
0.5        -0.5        8.25
0.5        -0.5         8.5
0.5        -0.5        8.75
0.5        -0.5           9
0.5        -0.5        9.25
0.5        -0.5         9.5
0.5        -0.5        9.75
0.5         0.5        0.25
0.5         0.5         0.5
0.5         0.5        0.75
0.5         0.5           1
0.5         0.5        1.25
0.5         0.5         1.5
0.5         0.5        1.75
0.5         0.5           2
0.5         0.5        2.25
0.5         0.5         2.5
0.5         0.5        2.75
0.5         0.5           3
0.5         0.5        3.25
0.5         0.5         3.5
0.5         0.5        3.75
0.5         0.5           4
0.5         0.5        4.25
0.5         0.5         4.5
0.5         0.5        4.75
0.5         0.5           5
0.5         0.5        5.25
0.5         0.5         5.5
0.5         0.5        5.75
0.5         0.5           6
0.5         0.5        6.25
0.5         0.5         6.5
0.5         0.5        6.75
0.5         0.5           7
0.5         0.5        7.25
0.5         0.5         7.5
0.5         0.5        7.75
0.5         0.5           8
0.5         0.5        8.25
0.5         0.5         8.5
0.5         0.5        8.75
0.5         0.5           9
0.5         0.5        9.25
0.5         0.5         9.5
0.5         0.5        9.75
-0.5         0.5        0.25
-0.5         0.5         0.5
-0.5         0.5        0.75
-0.5         0.5           1
-0.5         0.5        1.25
-0.5         0.5         1.5
-0.5         0.5        1.75
-0.5         0.5           2
-0.5         0.5        2.25
-0.5         0.5         2.5
-0.5         0.5        2.75
-0.5         0.5           3
-0.5         0.5        3.25
-0.5         0.5         3.5
-0.5         0.5        3.75
-0.5         0.5           4
-0.5         0.5        4.25
-0.5         0.5         4.5
-0.5         0.5        4.75
-0.5         0.5           5
-0.5         0.5        5.25
-0.5         0.5         5.5
-0.5         0.5        5.75
-0.5         0.5           6
-0.5         0.5        6.25
-0.5         0.5         6.5
-0.5         0.5        6.75
-0.5         0.5           7
-0.5         0.5        7.25
-0.5         0.5         7.5
-0.5         0.5        7.75
-0.5         0.5           8
-0.5         0.5        8.25
-0.5         0.5         8.5
-0.5         0.5        8.75
-0.5         0.5           9
-0.5         0.5        9.25
-0.5         0.5         9.5
-0.5         0.5        9.75
-0.25       -0.25           0
-0.25  6.8756e-13           0
-0.25        0.25           0
-6.8756e-13       -0.25           0
-3.7821e-24           0           0
6.8756e-13        0.25           0
0.25       -0.25           0
0.25 -6.8756e-13           0
0.25        0.25           0
-0.25        -0.5        0.25
-0.25        -0.5         0.5
-0.25        -0.5        0.75
-0.25        -0.5           1
-0.25        -0.5        1.25
-0.25        -0.5         1.5
-0.25        -0.5        1.75
-0.25        -0.5           2
-0.25        -0.5        2.25
-0.25        -0.5         2.5
-0.25        -0.5        2.75
-0.25        -0.5           3
-0.25        -0.5        3.25
-0.25        -0.5         3.5
-0.25        -0.5        3.75
-0.25        -0.5           4
-0.25        -0.5        4.25
-0.25        -0.5         4.5
-0.25        -0.5        4.75
-0.25        -0.5           5
-0.25        -0.5        5.25
-0.25        -0.5         5.5
-0.25        -0.5        5.75
-0.25        -0.5           6
-0.25        -0.5        6.25
-0.25        -0.5         6.5
-0.25        -0.5        6.75
-0.25        -0.5           7
-0.25        -0.5        7.25
-0.25        -0.5         7.5
-0.25        -0.5        7.75
-0.25        -0.5           8
-0.25        -0.5        8.25
-0.25        -0.5         8.5
-0.25        -0.5        8.75
-0.25        -0.5           9
-0.25        -0.5        9.25
-0.25        -0.5         9.5
-0.25        -0.5        9.75
-1.3751e-12        -0.5        0.25
-1.3751e-12        -0.5         0.5
-1.3751e-12        -0.5        0.75
-1.3751e-12        -0.5           1
-1.3751e-12        -0.5        1.25
-1.3751e-12        -0.5         1.5
-1.3751e-12        -0.5        1.75
-1.3751e-12        -0.5           2
-1.3751e-12        -0.5        2.25
-1.3751e-12        -0.5         2.5
-1.3751e-12        -0.5        2.75
-1.3751e-12        -0.5           3
-1.3751e-12        -0.5        3.25
-1.3751e-12        -0.5         3.5
-1.3751e-12        -0.5        3.75
-1.3751e-12        -0.5           4
-1.3751e-12        -0.5        4.25
-1.3751e-12        -0.5         4.5
-1.3751e-12        -0.5        4.75
-1.3751e-12        -0.5           5
-1.3751e-12        -0.5        5.25
-1.3751e-12        -0.5         5.5
-1.3751e-12        -0.5        5.75
-1.3751e-12        -0.5           6
-1.3751e-12        -0.5        6.25
-1.3751e-12        -0.5         6.5
-1.3751e-12        -0.5        6.75
-1.3751e-12        -0.5           7
-1.3751e-12        -0.5        7.25
-1.3751e-12        -0.5         7.5
-1.3751e-12        -0.5        7.75
-1.3751e-12        -0.5           8
-1.3751e-12        -0.5        8.25
-1.3751e-12        -0.5         8.5
-1.3751e-12        -0.5        8.75
-1.3751e-12        -0.5           9
-1.3751e-12        -0.5        9.25
-1.3751e-12        -0.5         9.5
-1.3751e-12        -0.5        9.75
0.25        -0.5        0.25
0.25        -0.5         0.5
0.25        -0.5        0.75
0.25        -0.5           1
0.25        -0.5        1.25
0.25        -0.5         1.5
0.25        -0.5        1.75
0.25        -0.5           2
0.25        -0.5        2.25
0.25        -0.5         2.5
0.25        -0.5        2.75
0.25        -0.5           3
0.25        -0.5        3.25
0.25        -0.5         3.5
0.25        -0.5        3.75
0.25        -0.5           4
0.25        -0.5        4.25
0.25        -0.5         4.5
0.25        -0.5        4.75
0.25        -0.5           5
0.25        -0.5        5.25
0.25        -0.5         5.5
0.25        -0.5        5.75
0.25        -0.5           6
0.25        -0.5        6.25
0.25        -0.5         6.5
0.25        -0.5        6.75
0.25        -0.5           7
0.25        -0.5        7.25
0.25        -0.5         7.5
0.25        -0.5        7.75
0.25        -0.5           8
0.25        -0.5        8.25
0.25        -0.5         8.5
0.25        -0.5        8.75
0.25        -0.5           9
0.25        -0.5        9.25
0.25        -0.5         9.5
0.25        -0.5        9.75
0.5       -0.25        0.25
0.5       -0.25         0.5
0.5       -0.25        0.75
0.5       -0.25           1
0.5       -0.25        1.25
0.5       -0.25         1.5
0.5       -0.25        1.75
0.5       -0.25           2
0.5       -0.25        2.25
0.5       -0.25         2.5
0.5       -0.25        2.75
0.5       -0.25           3
0.5       -0.25        3.25
0.5       -0.25         3.5
0.5       -0.25        3.75
0.5       -0.25           4
0.5       -0.25        4.25
[...]
POINT_DATA 1025
VECTORS displacement double
0  0  0
0  0  0
0  0  0
0  0  0
0.63795      1.1935    -0.07555
-1.1935     0.63795    -0.07555
-0.63795     -1.1935    -0.07555
1.1935    -0.63795    -0.07555
0  0  0
0  0  0
0  0  0
0  0  0
0  0  0
0  0  0
0  0  0
0  0  0
0  0  0
0  0  0
0  0  0
0  0  0
0.18008      1.0546    -0.08648
-0.27779     0.91573    -0.07107
-0.73565     0.77684   -0.057889
-1.0546     0.18008    -0.08648
-0.91573    -0.27779    -0.07107
-0.77684    -0.73565   -0.057889
-0.18008     -1.0546    -0.08648
0.27779    -0.91573    -0.07107
0.73565    -0.77684   -0.057889
1.0546    -0.18008    -0.08648
0.91573     0.27779    -0.07107
0.77684     0.73565   -0.057889
0.044517   -0.036481 -0.00069097
0.098348   -0.077446  -0.0032392
0.15456    -0.11251  -0.0052249
0.21328    -0.14208  -0.0070311
0.27444    -0.16604  -0.0087641
0.33755    -0.18419   -0.010464
0.40207    -0.19636   -0.012157
0.46745    -0.20246   -0.013852
0.53311    -0.20244   -0.015547
0.59848    -0.19629   -0.017244
0.663    -0.18407    -0.01894
0.72609    -0.16588   -0.020637
0.78722    -0.14189   -0.022333
0.84584     -0.1123    -0.02403
0.90144   -0.077374   -0.025726
0.95354   -0.037414   -0.027423
1.0017    0.007232   -0.029119
1.0455    0.056174   -0.030815
1.0845     0.10899   -0.032512
1.1184     0.16521   -0.034208
1.1469     0.22435   -0.035905
1.1698     0.28589   -0.037601
1.1869      0.3493   -0.039298
1.1979     0.41403   -0.040994
1.2029      0.4795   -0.042691
1.2018     0.54515   -0.044387
1.1945     0.61041   -0.046084
1.1812     0.67471    -0.04778
1.1619     0.73748   -0.049477
1.1369     0.79818   -0.051173
1.1063     0.85629    -0.05287
1.0704     0.91128   -0.054566
1.0296     0.96269   -0.056259
0.9841      1.0101   -0.057942
0.9344       1.053    -0.05961
0.88087       1.091   -0.061288
0.82389      1.1239   -0.063132
0.76387      1.1514   -0.065644
0.70143       1.174   -0.069558
0.036481    0.044517 -0.00069097
0.077446    0.098348  -0.0032392
0.11251     0.15456  -0.0052249
0.14208     0.21328  -0.0070311
0.16604     0.27444  -0.0087641
0.18419     0.33755   -0.010464
0.19636     0.40207   -0.012157
0.20246     0.46745   -0.013852
0.20244     0.53311   -0.015547
0.19629     0.59848   -0.017244
0.18407       0.663    -0.01894
0.16588     0.72609   -0.020637
0.14189     0.78722   -0.022333
0.1123     0.84584    -0.02403
0.077374     0.90144   -0.025726
0.037414     0.95354   -0.027423
-0.007232      1.0017   -0.029119
-0.056174      1.0455   -0.030815
-0.10899      1.0845   -0.032512
-0.16521      1.1184   -0.034208
-0.22435      1.1469   -0.035905
-0.28589      1.1698   -0.037601
-0.3493      1.1869   -0.039298
-0.41403      1.1979   -0.040994
-0.4795      1.2029   -0.042691
-0.54515      1.2018   -0.044387
-0.61041      1.1945   -0.046084
-0.67471      1.1812    -0.04778
-0.73748      1.1619   -0.049477
-0.79818      1.1369   -0.051173
-0.85629      1.1063    -0.05287
-0.91128      1.0704   -0.054566
-0.96269      1.0296   -0.056259
-1.0101      0.9841   -0.057942
-1.053      0.9344    -0.05961
-1.091     0.88087   -0.061288
-1.1239     0.82389   -0.063132
-1.1514     0.76387   -0.065644
-1.174     0.70143   -0.069558
-0.044517    0.036481 -0.00069097
-0.098348    0.077446  -0.0032392
-0.15456     0.11251  -0.0052249
-0.21328     0.14208  -0.0070311
-0.27444     0.16604  -0.0087641
-0.33755     0.18419   -0.010464
-0.40207     0.19636   -0.012157
-0.46745     0.20246   -0.013852
-0.53311     0.20244   -0.015547
-0.59848     0.19629   -0.017244
-0.663     0.18407    -0.01894
-0.72609     0.16588   -0.020637
-0.78722     0.14189   -0.022333
-0.84584      0.1123    -0.02403
-0.90144    0.077374   -0.025726
-0.95354    0.037414   -0.027423
-1.0017   -0.007232   -0.029119
-1.0455   -0.056174   -0.030815
-1.0845    -0.10899   -0.032512
-1.1184    -0.16521   -0.034208
-1.1469    -0.22435   -0.035905
-1.1698    -0.28589   -0.037601
-1.1869     -0.3493   -0.039298
-1.1979    -0.41403   -0.040994
-1.2029     -0.4795   -0.042691
-1.2018    -0.54515   -0.044387
-1.1945    -0.61041   -0.046084
-1.1812    -0.67471    -0.04778
-1.1619    -0.73748   -0.049477
-1.1369    -0.79818   -0.051173
-1.1063    -0.85629    -0.05287
-1.0704    -0.91128   -0.054566
-1.0296    -0.96269   -0.056259
-0.9841     -1.0101   -0.057942
-0.9344      -1.053    -0.05961
-0.88087      -1.091   -0.061288
-0.82389     -1.1239   -0.063132
-0.76387     -1.1514   -0.065644
-0.70143      -1.174   -0.069558
-0.036481   -0.044517 -0.00069097
-0.077446   -0.098348  -0.0032392
-0.11251    -0.15456  -0.0052249
-0.14208    -0.21328  -0.0070311
-0.16604    -0.27444  -0.0087641
-0.18419    -0.33755   -0.010464
-0.19636    -0.40207   -0.012157
-0.20246    -0.46745   -0.013852
-0.20244    -0.53311   -0.015547
-0.19629    -0.59848   -0.017244
-0.18407      -0.663    -0.01894
-0.16588    -0.72609   -0.020637
-0.14189    -0.78722   -0.022333
-0.1123    -0.84584    -0.02403
-0.077374    -0.90144   -0.025726
-0.037414    -0.95354   -0.027423
0.007232     -1.0017   -0.029119
0.056174     -1.0455   -0.030815
0.10899     -1.0845   -0.032512
0.16521     -1.1184   -0.034208
0.22435     -1.1469   -0.035905
0.28589     -1.1698   -0.037601
0.3493     -1.1869   -0.039298
0.41403     -1.1979   -0.040994
0.4795     -1.2029   -0.042691
0.54515     -1.2018   -0.044387
0.61041     -1.1945   -0.046084
0.67471     -1.1812    -0.04778
0.73748     -1.1619   -0.049477
0.79818     -1.1369   -0.051173
0.85629     -1.1063    -0.05287
0.91128     -1.0704   -0.054566
0.96269     -1.0296   -0.056259
1.0101     -0.9841   -0.057942
1.053     -0.9344    -0.05961
1.091    -0.88087   -0.061288
1.1239    -0.82389   -0.063132
1.1514    -0.76387   -0.065644
1.174    -0.70143   -0.069558
0  0  0
0  0  0
0  0  0
0  0  0
0  0  0
0  0  0
0  0  0
0  0  0
0  0  0
0.044613   -0.017323   -0.012926
0.093024   -0.033234   -0.017384
0.14361   -0.045594   -0.019356
0.19505   -0.053145   -0.021075
0.24689   -0.055882   -0.022768
0.29876   -0.053758   -0.024461
0.3502     -0.0468   -0.026156
0.40076   -0.035071   -0.027851
0.45001   -0.018676   -0.029547
0.49752   0.0022407   -0.031244
0.54287    0.027497    -0.03294
0.58566    0.056874   -0.034637
0.62553    0.090113   -0.036333
0.66212     0.12693    -0.03803
0.69512     0.16699   -0.039726
0.72424     0.20996   -0.041423
0.74923     0.25546   -0.043119
0.76986     0.30309   -0.044816
0.78596     0.35244   -0.046512
0.79739     0.40307   -0.048209
0.80404     0.45455   -0.049905
0.80587     0.50643   -0.051601
0.80284     0.55825   -0.053298
0.795     0.60956   -0.054994
0.78241     0.65991   -0.056691
0.76517     0.70888   -0.058387
0.74344     0.75602   -0.060084
0.71741     0.80093    -0.06178
0.6873     0.84321   -0.063477
0.65339      0.8825   -0.065173
0.61595     0.91846    -0.06687
0.57533     0.95077   -0.068566
0.53187     0.97915   -0.070261
0.48595      1.0034   -0.071952
0.43797      1.0232   -0.073638
0.3883      1.0383   -0.075332
0.33731      1.0487   -0.077106
0.28532      1.0541   -0.079197
0.23305       1.055   -0.082022
0.045284   0.0035895  -0.0014479
0.088561    0.010192  -0.0033564
0.13364    0.020628  -0.0053302
0.17784    0.035155  -0.0070821
0.22046    0.053753  -0.0087718
0.26113    0.076255   -0.010461
0.29952     0.10246   -0.012155
0.33529     0.13213   -0.013851
0.36814       0.165   -0.015547
0.39778      0.2008   -0.017244
0.42395     0.23921    -0.01894
0.44643     0.27989   -0.020637
0.46502     0.32249   -0.022333
0.47955     0.36663    -0.02403
0.48989     0.41194   -0.025726
0.49597     0.45802   -0.027423
0.49773     0.50447   -0.029119
0.49514     0.55087   -0.030815
0.48824     0.59683   -0.032512
0.47708     0.64195   -0.034208
0.46176     0.68583   -0.035905
0.44241     0.72809   -0.037601
0.41921     0.76836   -0.039298
0.39235     0.80629   -0.040994
0.36207     0.84155   -0.042691
0.32863     0.87383   -0.044387
0.29233     0.90285   -0.046084
0.25348     0.92836    -0.04778
0.21242     0.95014   -0.049476
0.16951     0.96799   -0.051173
0.12512     0.98176    -0.05287
0.079642     0.99133   -0.054567
0.033468     0.99662   -0.056264
-0.012996     0.99758   -0.057959
-0.059346     0.99419   -0.059644
-0.10518     0.98645     -0.0613
-0.15012     0.97432   -0.062911
-0.19383      0.9578   -0.064589
-0.23615     0.93738   -0.066997
0.041343    0.025692   0.0095366
0.083324    0.054968     0.01053
0.1233    0.088173    0.008765
0.16013      0.1248   0.0069637
0.19338      0.1647   0.0052387
0.22273     0.20751   0.0035397
0.24796     0.25288   0.0018445
0.26884      0.3004  0.00014887
0.28519     0.34967  -0.0015473
0.29688     0.40024  -0.0032437
0.3038     0.45168  -0.0049401
0.30589     0.50355  -0.0066366
0.30314     0.55538   -0.008333
0.29556     0.60673    -0.01003
0.28323     0.65715   -0.011726
0.26624      0.7062   -0.013422
0.24476     0.75346   -0.015119
0.21896      0.7985   -0.016815
0.18908     0.84094   -0.018512
0.15536     0.88041   -0.020208
0.11811     0.91656   -0.021905
0.077655     0.94908   -0.023601
0.03434     0.97768   -0.025298
-0.011454      1.0021   -0.026994
-0.059329      1.0222   -0.028691
-0.10887      1.0377   -0.030387
-0.15963      1.0485   -0.032083
-0.21119      1.0545    -0.03378
-0.26308      1.0557   -0.035476
-0.31486      1.0521   -0.037173
-0.36607      1.0437    -0.03887
-0.41628      1.0305   -0.040566
-0.46503      1.0126   -0.042262
-0.5119     0.99035   -0.043954
-0.55648     0.96377   -0.045636
-0.59836     0.93312   -0.047305
-0.63716     0.89859   -0.048998
-0.67261     0.86041   -0.050904
-0.70503     0.81889   -0.053667
0.017323    0.044613   -0.012926
0.033234    0.093024   -0.017384
0.045594     0.14361   -0.019356
0.053145     0.19505   -0.021075
0.055882     0.24689   -0.022768
0.053758     0.29876   -0.024461
0.0468      0.3502   -0.026156
0.035071     0.40076   -0.027851
0.018676     0.45001   -0.029547
-0.0022407     0.49752   -0.031244
-0.027497     0.54287    -0.03294
-0.056874     0.58566   -0.034637
-0.090113     0.62553   -0.036333
-0.12693     0.66212    -0.03803
-0.16699     0.69512   -0.039726
-0.20996     0.72424   -0.041423
-0.25546     0.74923   -0.043119
-0.30309     0.76986   -0.044816
-0.35244     0.78596   -0.046512
-0.40307     0.79739   -0.048209
-0.45455     0.80404   -0.049905
-0.50643     0.80587   -0.051601
-0.55825     0.80284   -0.053298
-0.60956       0.795   -0.054994
-0.65991     0.78241   -0.056691
-0.70888     0.76517   -0.058387
-0.75602     0.74344   -0.060084
-0.80093     0.71741    -0.06178
-0.84321      0.6873   -0.063477
-0.8825     0.65339   -0.065173
-0.91846     0.61595    -0.06687
-0.95077     0.57533   -0.068566
-0.97915     0.53187   -0.070261
-1.0034     0.48595   -0.071952
-1.0232     0.43797   -0.073638
-1.0383      0.3883   -0.075332
-1.0487     0.33731   -0.077106
-1.0541     0.28532   -0.079197
-1.055     0.23305   -0.082022
-0.0035895    0.045284  -0.0014479
-0.010192    0.088561  -0.0033564
-0.020628     0.13364  -0.0053302
-0.035155     0.17784  -0.0070821
-0.053753     0.22046  -0.0087718
-0.076255     0.26113   -0.010461
-0.10246     0.29952   -0.012155
-0.13213     0.33529   -0.013851
-0.165     0.36814   -0.015547
-0.2008     0.39778   -0.017244
-0.23921     0.42395    -0.01894
-0.27989     0.44643   -0.020637
-0.32249     0.46502   -0.022333
-0.36663     0.47955    -0.02403
-0.41194     0.48989   -0.025726
-0.45802     0.49597   -0.027423
-0.50447     0.49773   -0.029119
-0.55087     0.49514   -0.030815
-0.59683     0.48824   -0.032512
-0.64195     0.47708   -0.034208
-0.68583     0.46176   -0.035905
-0.72809     0.44241   -0.037601
-0.76836     0.41921   -0.039298
-0.80629     0.39235   -0.040994
-0.84155     0.36207   -0.042691
-0.87383     0.32863   -0.044387
-0.90285     0.29233   -0.046084
-0.92836     0.25348    -0.04778
-0.95014     0.21242   -0.049476
-0.96799     0.16951   -0.051173
-0.98176     0.12512    -0.05287
-0.99133    0.079642   -0.054567
-0.99662    0.033468   -0.056264
-0.99758   -0.012996   -0.057959
-0.99419   -0.059346   -0.059644
-0.98645    -0.10518     -0.0613
-0.97432    -0.15012   -0.062911
-0.9578    -0.19383   -0.064589
-0.93738    -0.23615   -0.066997
-0.025692    0.041343   0.0095366
-0.054968    0.083324     0.01053
-0.088173      0.1233    0.008765
-0.1248     0.16013   0.0069637
-0.1647     0.19338   0.0052387
-0.20751     0.22273   0.0035397
-0.25288     0.24796   0.0018445
-0.3004     0.26884  0.00014887
-0.34967     0.28519  -0.0015473
-0.40024     0.29688  -0.0032437
-0.45168      0.3038  -0.0049401
-0.50355     0.30589  -0.0066366
-0.55538     0.30314   -0.008333
-0.60673     0.29556    -0.01003
-0.65715     0.28323   -0.011726
-0.7062     0.26624   -0.013422
-0.75346     0.24476   -0.015119
-0.7985     0.21896   -0.016815
-0.84094     0.18908   -0.018512
-0.88041     0.15536   -0.020208
-0.91656     0.11811   -0.021905
-0.94908    0.077655   -0.023601
-0.97768     0.03434   -0.025298
-1.0021   -0.011454   -0.026994
-1.0222   -0.059329   -0.028691
-1.0377    -0.10887   -0.030387
-1.0485    -0.15963   -0.032083
-1.0545    -0.21119    -0.03378
-1.0557    -0.26308   -0.035476
-1.0521    -0.31486   -0.037173
-1.0437    -0.36607    -0.03887
-1.0305    -0.41628   -0.040566
-1.0126    -0.46503   -0.042262
-0.99035     -0.5119   -0.043954
-0.96377    -0.55648   -0.045636
-0.93312    -0.59836   -0.047305
-0.89859    -0.63716   -0.048998
-0.86041    -0.67261   -0.050904
-0.81889    -0.70503   -0.053667
-0.044613    0.017323   -0.012926
-0.093024    0.033234   -0.017384
-0.14361    0.045594   -0.019356
-0.19505    0.053145   -0.021075
-0.24689    0.055882   -0.022768
-0.29876    0.053758   -0.024461
-0.3502      0.0468   -0.026156
-0.40076    0.035071   -0.027851
-0.45001    0.018676   -0.029547
-0.49752  -0.0022407   -0.031244
-0.54287   -0.027497    -0.03294
-0.58566   -0.056874   -0.034637
-0.62553   -0.090113   -0.036333
-0.66212    -0.12693    -0.03803
-0.69512    -0.16699   -0.039726
-0.72424    -0.20996   -0.041423
-0.74923    -0.25546   -0.043119
-0.76986    -0.30309   -0.044816
-0.78596    -0.35244   -0.046512
-0.79739    -0.40307   -0.048209
-0.80404    -0.45455   -0.049905
-0.80587    -0.50643   -0.051601
-0.80284    -0.55825   -0.053298
-0.795    -0.60956   -0.054994
-0.78241    -0.65991   -0.056691
-0.76517    -0.70888   -0.058387
-0.74344    -0.75602   -0.060084
-0.71741    -0.80093    -0.06178
-0.6873    -0.84321   -0.063477
-0.65339     -0.8825   -0.065173
-0.61595    -0.91846    -0.06687
-0.57533    -0.95077   -0.068566
-0.53187    -0.97915   -0.070261
-0.48595     -1.0034   -0.071952
-0.43797     -1.0232   -0.073638
-0.3883     -1.0383   -0.075332
-0.33731     -1.0487   -0.077106
-0.28532     -1.0541   -0.079197
-0.23305      -1.055   -0.082022
-0.045284  -0.0035895  -0.0014479
-0.088561   -0.010192  -0.0033564
-0.13364   -0.020628  -0.0053302
-0.17784   -0.035155  -0.0070821
-0.22046   -0.053753  -0.0087718
-0.26113   -0.076255   -0.010461
-0.29952    -0.10246   -0.012155
-0.33529    -0.13213   -0.013851
-0.36814      -0.165   -0.015547
-0.39778     -0.2008   -0.017244
-0.42395    -0.23921    -0.01894
-0.44643    -0.27989   -0.020637
-0.46502    -0.32249   -0.022333
-0.47955    -0.36663    -0.02403
-0.48989    -0.41194   -0.025726
-0.49597    -0.45802   -0.027423
-0.49773    -0.50447   -0.029119
-0.49514    -0.55087   -0.030815
-0.48824    -0.59683   -0.032512
-0.47708    -0.64195   -0.034208
-0.46176    -0.68583   -0.035905
-0.44241    -0.72809   -0.037601
-0.41921    -0.76836   -0.039298
-0.39235    -0.80629   -0.040994
-0.36207    -0.84155   -0.042691
-0.32863    -0.87383   -0.044387
-0.29233    -0.90285   -0.046084
-0.25348    -0.92836    -0.04778
-0.21242    -0.95014   -0.049476
-0.16951    -0.96799   -0.051173
-0.12512    -0.98176    -0.05287
-0.079642    -0.99133   -0.054567
-0.033468    -0.99662   -0.056264
0.012996    -0.99758   -0.057959
0.059346    -0.99419   -0.059644
0.10518    -0.98645     -0.0613
0.15012    -0.97432   -0.062911
0.19383     -0.9578   -0.064589
0.23615    -0.93738   -0.066997
-0.041343   -0.025692   0.0095366
-0.083324   -0.054968     0.01053
-0.1233   -0.088173    0.008765
-0.16013     -0.1248   0.0069637
-0.19338     -0.1647   0.0052387
-0.22273    -0.20751   0.0035397
-0.24796    -0.25288   0.0018445
-0.26884     -0.3004  0.00014887
-0.28519    -0.34967  -0.0015473
-0.29688    -0.40024  -0.0032437
-0.3038    -0.45168  -0.0049401
-0.30589    -0.50355  -0.0066366
-0.30314    -0.55538   -0.008333
-0.29556    -0.60673    -0.01003
-0.28323    -0.65715   -0.011726
-0.26624     -0.7062   -0.013422
-0.24476    -0.75346   -0.015119
-0.21896     -0.7985   -0.016815
-0.18908    -0.84094   -0.018512
-0.15536    -0.88041   -0.020208
-0.11811    -0.91656   -0.021905
-0.077655    -0.94908   -0.023601
-0.03434    -0.97768   -0.025298
0.011454     -1.0021   -0.026994
0.059329     -1.0222   -0.028691
0.10887     -1.0377   -0.030387
0.15963     -1.0485   -0.032083
0.21119     -1.0545    -0.03378
0.26308     -1.0557   -0.035476
0.31486     -1.0521   -0.037173
0.36607     -1.0437    -0.03887
0.41628     -1.0305   -0.040566
0.46503     -1.0126   -0.042262
0.5119    -0.99035   -0.043954
0.55648    -0.96377   -0.045636
0.59836    -0.93312   -0.047305
0.63716    -0.89859   -0.048998
0.67261    -0.86041   -0.050904
0.70503    -0.81889   -0.053667
-0.017323   -0.044613   -0.012926
-0.033234   -0.093024   -0.017384
-0.045594    -0.14361   -0.019356
-0.053145    -0.19505   -0.021075
-0.055882    -0.24689   -0.022768
-0.053758    -0.29876   -0.024461
-0.0468     -0.3502   -0.026156
-0.035071    -0.40076   -0.027851
-0.018676    -0.45001   -0.029547
0.0022407    -0.49752   -0.031244
0.027497    -0.54287    -0.03294
0.056874    -0.58566   -0.034637
0.090113    -0.62553   -0.036333
0.12693    -0.66212    -0.03803
0.16699    -0.69512   -0.039726
0.20996    -0.72424   -0.041423
0.25546    -0.74923   -0.043119
0.30309    -0.76986   -0.044816
0.35244    -0.78596   -0.046512
0.40307    -0.79739   -0.048209
0.45455    -0.80404   -0.049905
0.50643    -0.80587   -0.051601
0.55825    -0.80284   -0.053298
0.60956      -0.795   -0.054994
0.65991    -0.78241   -0.056691
0.70888    -0.76517   -0.058387
0.75602    -0.74344   -0.060084
0.80093    -0.71741    -0.06178
0.84321     -0.6873   -0.063477
0.8825    -0.65339   -0.065173
0.91846    -0.61595    -0.06687
0.95077    -0.57533   -0.068566
0.97915    -0.53187   -0.070261
1.0034    -0.48595   -0.071952
1.0232    -0.43797   -0.073638
1.0383     -0.3883   -0.075332
1.0487    -0.33731   -0.077106
1.0541    -0.28532   -0.079197
1.055    -0.23305   -0.082022
0.0035895   -0.045284  -0.0014479
0.010192   -0.088561  -0.0033564
0.020628    -0.13364  -0.0053302
0.035155    -0.17784  -0.0070821
0.053753    -0.22046  -0.0087718
0.076255    -0.26113   -0.010461
0.10246    -0.29952   -0.012155
0.13213    -0.33529   -0.013851
0.165    -0.36814   -0.015547
0.2008    -0.39778   -0.017244
0.23921    -0.42395    -0.01894
0.27989    -0.44643   -0.020637
0.32249    -0.46502   -0.022333
0.36663    -0.47955    -0.02403
0.41194    -0.48989   -0.025726
0.45802    -0.49597   -0.027423
0.50447    -0.49773   -0.029119
0.55087    -0.49514   -0.030815
0.59683    -0.48824   -0.032512
0.64195    -0.47708   -0.034208
0.68583    -0.46176   -0.035905
0.72809    -0.44241   -0.037601
0.76836    -0.41921   -0.039298
0.80629    -0.39235   -0.040994
0.84155    -0.36207   -0.042691
0.87383    -0.32863   -0.044387
0.90285    -0.29233   -0.046084
0.92836    -0.25348    -0.04778
0.95014    -0.21242   -0.049476
0.96799    -0.16951   -0.051173
0.98176    -0.12512    -0.05287
0.99133   -0.079642   -0.054567
0.99662   -0.033468   -0.056264
0.99758    0.012996   -0.057959
0.99419    0.059346   -0.059644
0.98645     0.10518     -0.0613
0.97432     0.15012   -0.062911
0.9578     0.19383   -0.064589
0.93738     0.23615   -0.066997
0.025692   -0.041343   0.0095366
0.054968   -0.083324     0.01053
0.088173     -0.1233    0.008765
0.1248    -0.16013   0.0069637
0.1647    -0.19338   0.0052387
0.20751    -0.22273   0.0035397
0.25288    -0.24796   0.0018445