# vtk DataFile Version 3.0
VTK Output
ASCII
DATASET UNSTRUCTURED_GRID

POINTS 1025 float
-0.5        -0.5           0
0.5        -0.5           0
0.5         0.5           0
-0.5         0.5           0
-0.5         -0.5           10
0.5         -0.5           10
0.5          0.5           10
-0.5          0.5           10
-0.25        -0.5           0
-1.3751e-12        -0.5           0
0.25        -0.5           0
0.5       -0.25           0
0.5 -1.3751e-12           0
0.5        0.25           0
0.25         0.5           0
1.3751e-12         0.5           0
-0.25         0.5           0
-0.5        0.25           0
-0.5  1.3751e-12           0
-0.5       -0.25           0
-0.25         -0.5           10
-1.37512e-12         -0.5           10
0.25         -0.5           10
0.5        -0.25           10
0.5 -1.37512e-12           10
0.5         0.25           10
0.25          0.5           10
1.37512e-12          0.5           10
-0.25          0.5           10
-0.5         0.25           10
-0.5  1.37512e-12           10
-0.5        -0.25           10
-0.5        -0.5        0.25
-0.5        -0.5         0.5
-0.5        -0.5        0.75
-0.5        -0.5           1
-0.5        -0.5        1.25
-0.5        -0.5         1.5
-0.5        -0.5        1.75
-0.5        -0.5           2
-0.5        -0.5        2.25
-0.5        -0.5         2.5
-0.5        -0.5        2.75
-0.5        -0.5           3
-0.5        -0.5        3.25
-0.5        -0.5         3.5
-0.5        -0.5        3.75
-0.5        -0.5           4
-0.5        -0.5        4.25
-0.5        -0.5         4.5
-0.5        -0.5        4.75
-0.5        -0.5           5
-0.5        -0.5        5.25
-0.5        -0.5         5.5
-0.5        -0.5        5.75
-0.5        -0.5           6
-0.5        -0.5        6.25
-0.5        -0.5         6.5
-0.5        -0.5        6.75
-0.5        -0.5           7
-0.5        -0.5        7.25
-0.5        -0.5         7.5
-0.5        -0.5        7.75
-0.5        -0.5           8
-0.5        -0.5        8.25
-0.5        -0.5         8.5
-0.5        -0.5        8.75
-0.5        -0.5           9
-0.5        -0.5        9.25
-0.5        -0.5         9.5
-0.5        -0.5        9.75
0.5        -0.5        0.25
0.5        -0.5         0.5
0.5        -0.5        0.75
0.5        -0.5           1
0.5        -0.5        1.25
0.5        -0.5         1.5
0.5        -0.5        1.75
0.5        -0.5           2
0.5        -0.5        2.25
0.5        -0.5         2.5
0.5        -0.5        2.75
0.5        -0.5           3
0.5        -0.5        3.25
0.5        -0.5         3.5
0.5        -0.5        3.75
0.5        -0.5           4
0.5        -0.5        4.25
0.5        -0.5         4.5
0.5        -0.5        4.75
0.5        -0.5           5
0.5        -0.5        5.25
0.5        -0.5         5.5
0.5        -0.5        5.75
0.5        -0.5           6
0.5        -0.5        6.25
0.5        -0.5         6.5
0.5        -0.5        6.75
0.5        -0.5           7
0.5        -0.5        7.25
0.5        -0.5         7.5
0.5        -0.5        7.75
0.5        -0.5           8
0.5        -0.5        8.25
0.5        -0.5         8.5
0.5        -0.5        8.75
0.5        -0.5           9
0.5        -0.5        9.25
0.5        -0.5         9.5
0.5        -0.5        9.75
0.5         0.5        0.25
0.5         0.5         0.5
0.5         0.5        0.75
0.5         0.5           1
0.5         0.5        1.25
0.5         0.5         1.5
0.5         0.5        1.75
0.5         0.5           2
0.5         0.5        2.25
0.5         0.5         2.5
0.5         0.5        2.75
0.5         0.5           3
0.5         0.5        3.25
0.5         0.5         3.5
0.5         0.5        3.75
0.5         0.5           4
0.5         0.5        4.25
0.5         0.5         4.5
0.5         0.5        4.75
0.5         0.5           5
0.5         0.5        5.25
0.5         0.5         5.5
0.5         0.5        5.75
0.5         0.5           6
0.5         0.5        6.25
0.5         0.5         6.5
0.5         0.5        6.75
0.5         0.5           7
0.5         0.5        7.25
0.5         0.5         7.5
0.5         0.5        7.75
0.5         0.5           8
0.5         0.5        8.25
0.5         0.5         8.5
0.5         0.5        8.75
0.5         0.5           9
0.5         0.5        9.25
0.5         0.5         9.5
0.5         0.5        9.75
-0.5         0.5        0.25
-0.5         0.5         0.5
-0.5         0.5        0.75
-0.5         0.5           1
-0.5         0.5        1.25
-0.5         0.5         1.5
-0.5         0.5        1.75
-0.5         0.5           2
-0.5         0.5        2.25
-0.5         0.5         2.5
-0.5         0.5        2.75
-0.5         0.5           3
-0.5         0.5        3.25
-0.5         0.5         3.5
-0.5         0.5        3.75
-0.5         0.5           4
-0.5         0.5        4.25
-0.5         0.5         4.5
-0.5         0.5        4.75
-0.5         0.5           5
-0.5         0.5        5.25
-0.5         0.5         5.5
-0.5         0.5        5.75
-0.5         0.5           6
-0.5         0.5        6.25
-0.5         0.5         6.5
-0.5         0.5        6.75
-0.5         0.5           7
-0.5         0.5        7.25
-0.5         0.5         7.5
-0.5         0.5        7.75
-0.5         0.5           8
-0.5         0.5        8.25
-0.5         0.5         8.5
-0.5         0.5        8.75
-0.5         0.5           9
-0.5         0.5        9.25
-0.5         0.5         9.5
-0.5         0.5        9.75
-0.25       -0.25           0
-0.25  6.8756e-13           0
-0.25        0.25           0
-6.8756e-13       -0.25           0
-3.7821e-24           0           0
6.8756e-13        0.25           0
0.25       -0.25           0
0.25 -6.8756e-13           0
0.25        0.25           0
-0.25        -0.5        0.25
-0.25        -0.5         0.5
-0.25        -0.5        0.75
-0.25        -0.5           1
-0.25        -0.5        1.25
-0.25        -0.5         1.5
-0.25        -0.5        1.75
-0.25        -0.5           2
-0.25        -0.5        2.25
-0.25        -0.5         2.5
-0.25        -0.5        2.75
-0.25        -0.5           3
-0.25        -0.5        3.25
-0.25        -0.5         3.5
-0.25        -0.5        3.75
-0.25        -0.5           4
-0.25        -0.5        4.25
-0.25        -0.5         4.5
-0.25        -0.5        4.75
-0.25        -0.5           5
-0.25        -0.5        5.25
-0.25        -0.5         5.5
-0.25        -0.5        5.75
-0.25        -0.5           6
-0.25        -0.5        6.25
-0.25        -0.5         6.5
-0.25        -0.5        6.75
-0.25        -0.5           7
-0.25        -0.5        7.25
-0.25        -0.5         7.5
-0.25        -0.5        7.75
-0.25        -0.5           8
-0.25        -0.5        8.25
-0.25        -0.5         8.5
-0.25        -0.5        8.75
-0.25        -0.5           9
-0.25        -0.5        9.25
-0.25        -0.5         9.5
-0.25        -0.5        9.75
-1.3751e-12        -0.5        0.25
-1.3751e-12        -0.5         0.5
-1.3751e-12        -0.5        0.75
-1.3751e-12        -0.5           1
-1.3751e-12        -0.5        1.25
-1.3751e-12        -0.5         1.5
-1.3751e-12        -0.5        1.75
-1.3751e-12        -0.5           2
-1.3751e-12        -0.5        2.25
-1.3751e-12        -0.5         2.5
-1.3751e-12        -0.5        2.75
-1.3751e-12        -0.5           3
-1.3751e-12        -0.5        3.25
-1.3751e-12        -0.5         3.5
-1.3751e-12        -0.5        3.75
-1.3751e-12        -0.5           4
-1.3751e-12        -0.5        4.25
-1.3751e-12        -0.5         4.5
-1.3751e-12        -0.5        4.75
-1.3751e-12        -0.5           5
-1.3751e-12        -0.5        5.25
-1.3751e-12        -0.5         5.5
-1.3751e-12        -0.5        5.75
-1.3751e-12        -0.5           6
-1.3751e-12        -0.5        6.25
-1.3751e-12        -0.5         6.5
-1.3751e-12        -0.5        6.75
-1.3751e-12        -0.5           7
-1.3751e-12        -0.5        7.25
-1.3751e-12        -0.5         7.5
-1.3751e-12        -0.5        7.75
-1.3751e-12        -0.5           8
-1.3751e-12        -0.5        8.25
-1.3751e-12        -0.5         8.5
-1.3751e-12        -0.5        8.75
-1.3751e-12        -0.5           9
-1.3751e-12        -0.5        9.25
-1.3751e-12        -0.5         9.5
-1.3751e-12        -0.5        9.75
0.25        -0.5        0.25
0.25        -0.5         0.5
0.25        -0.5        0.75
0.25        -0.5           1
0.25        -0.5        1.25
0.25        -0.5         1.5
0.25        -0.5        1.75
0.25        -0.5           2
0.25        -0.5        2.25
0.25        -0.5         2.5
0.25        -0.5        2.75
0.25        -0.5           3
0.25        -0.5        3.25
0.25        -0.5         3.5
0.25        -0.5        3.75
0.25        -0.5           4
0.25        -0.5        4.25
0.25        -0.5         4.5
0.25        -0.5        4.75
0.25        -0.5           5
0.25        -0.5        5.25
0.25        -0.5         5.5
0.25        -0.5        5.75
0.25        -0.5           6
0.25        -0.5        6.25
0.25        -0.5         6.5
0.25        -0.5        6.75
0.25        -0.5           7
0.25        -0.5        7.25
0.25        -0.5         7.5
0.25        -0.5        7.75
0.25        -0.5           8
0.25        -0.5        8.25
0.25        -0.5         8.5
0.25        -0.5        8.75
0.25        -0.5           9
0.25        -0.5        9.25
0.25        -0.5         9.5
0.25        -0.5        9.75
0.5       -0.25        0.25
0.5       -0.25         0.5
0.5       -0.25        0.75
0.5       -0.25           1
0.5       -0.25        1.25
0.5       -0.25         1.5
0.5       -0.25        1.75
0.5       -0.25           2
0.5       -0.25        2.25
0.5       -0.25         2.5
0.5       -0.25        2.75
0.5       -0.25           3
0.5       -0.25        3.25
0.5       -0.25         3.5
0.5       -0.25        3.75
0.5       -0.25           4
0.5       -0.25        4.25
[...]
POINT_DATA 1025
VECTORS displacement double
0  0  0
0  0  0
0  0  0
0  0  0
0.63795    -0.19352     -0.2804
0.19352     0.63795     -0.2804
-0.63795     0.19352     -0.2804
-0.19352    -0.63795     -0.2804
0  0  0
0  0  0
0  0  0
0  0  0
0  0  0
0  0  0
0  0  0
0  0  0
0  0  0
0  0  0
0  0  0
0  0  0
0.52684    0.014347    -0.29591
0.41573     0.22221    -0.26243
0.30463     0.43008    -0.23741
-0.014347     0.52684    -0.29591
-0.22221     0.41573    -0.26243
-0.43008     0.30463    -0.23741
-0.52684   -0.014347    -0.29591
-0.41573    -0.22221    -0.26243
-0.30463    -0.43008    -0.23741
0.014347    -0.52684    -0.29591
0.22221    -0.41573    -0.26243
0.43008    -0.30463    -0.23741
0.090408    -0.06114  -0.0022478
0.20109    -0.12501   -0.011153
0.32039    -0.16825   -0.018737
0.44468    -0.18971   -0.025534
0.57043    -0.18843   -0.031911
0.69371    -0.16443   -0.038116
0.81056    -0.11853   -0.044293
0.91719   -0.052251    -0.05048
1.0101    0.032201   -0.056677
1.0862     0.13205   -0.062877
1.143       0.244   -0.069078
1.1787     0.36438   -0.075279
1.192     0.48923    -0.08148
1.1826     0.61442   -0.087681
1.1507     0.73585   -0.093882
1.0974     0.84952    -0.10008
1.0244     0.95169    -0.10628
0.93417       1.039    -0.11248
0.82965      1.1086    -0.11869
0.71429      1.1581    -0.12489
0.59187       1.186    -0.13109
0.46643      1.1913    -0.13729
0.3421      1.1739    -0.14349
0.22296      1.1342    -0.14969
0.11294      1.0738    -0.15589
0.015652      0.9944    -0.16209
-0.065695     0.89876    -0.16829
-0.12843        0.79    -0.17449
-0.17048      0.6717    -0.18069
-0.19046     0.54775     -0.1869
-0.18773     0.42223     -0.1931
-0.16238     0.29927     -0.1993
-0.11524     0.18292    -0.20549
-0.047871    0.077036    -0.21161
0.037561   -0.014872    -0.21762
0.13851     -0.0897    -0.22365
0.25236    -0.14485    -0.23045
0.37639    -0.17875    -0.24037
0.50698     -0.1923    -0.25641
0.06114    0.090408  -0.0022478
0.12501     0.20109   -0.011153
0.16825     0.32039   -0.018737
0.18971     0.44468   -0.025534
0.18843     0.57043   -0.031911
0.16443     0.69371   -0.038116
0.11853     0.81056   -0.044293
0.052251     0.91719    -0.05048
-0.032201      1.0101   -0.056677
-0.13205      1.0862   -0.062877
-0.244       1.143   -0.069078
-0.36438      1.1787   -0.075279
-0.48923       1.192    -0.08148
-0.61442      1.1826   -0.087681
-0.73585      1.1507   -0.093882
-0.84952      1.0974    -0.10008
-0.95169      1.0244    -0.10628
-1.039     0.93417    -0.11248
-1.1086     0.82965    -0.11869
-1.1581     0.71429    -0.12489
-1.186     0.59187    -0.13109
-1.1913     0.46643    -0.13729
-1.1739      0.3421    -0.14349
-1.1342     0.22296    -0.14969
-1.0738     0.11294    -0.15589
-0.9944    0.015652    -0.16209
-0.89876   -0.065695    -0.16829
-0.79    -0.12843    -0.17449
-0.6717    -0.17048    -0.18069
-0.54775    -0.19046     -0.1869
-0.42223    -0.18773     -0.1931
-0.29927    -0.16238     -0.1993
-0.18292    -0.11524    -0.20549
-0.077036   -0.047871    -0.21161
0.014872    0.037561    -0.21762
0.0897     0.13851    -0.22365
0.14485     0.25236    -0.23045
0.17875     0.37639    -0.24037
0.1923     0.50698    -0.25641
-0.090408     0.06114  -0.0022478
-0.20109     0.12501   -0.011153
-0.32039     0.16825   -0.018737
-0.44468     0.18971   -0.025534
-0.57043     0.18843   -0.031911
-0.69371     0.16443   -0.038116
-0.81056     0.11853   -0.044293
-0.91719    0.052251    -0.05048
-1.0101   -0.032201   -0.056677
-1.0862    -0.13205   -0.062877
-1.143      -0.244   -0.069078
-1.1787    -0.36438   -0.075279
-1.192    -0.48923    -0.08148
-1.1826    -0.61442   -0.087681
-1.1507    -0.73585   -0.093882
-1.0974    -0.84952    -0.10008
-1.0244    -0.95169    -0.10628
-0.93417      -1.039    -0.11248
-0.82965     -1.1086    -0.11869
-0.71429     -1.1581    -0.12489
-0.59187      -1.186    -0.13109
-0.46643     -1.1913    -0.13729
-0.3421     -1.1739    -0.14349
-0.22296     -1.1342    -0.14969
-0.11294     -1.0738    -0.15589
-0.015652     -0.9944    -0.16209
0.065695    -0.89876    -0.16829
0.12843       -0.79    -0.17449
0.17048     -0.6717    -0.18069
0.19046    -0.54775     -0.1869
0.18773    -0.42223     -0.1931
0.16238    -0.29927     -0.1993
0.11524    -0.18292    -0.20549
0.047871   -0.077036    -0.21161
-0.037561    0.014872    -0.21762
-0.13851      0.0897    -0.22365
-0.25236     0.14485    -0.23045
-0.37639     0.17875    -0.24037
-0.50698      0.1923    -0.25641
-0.06114   -0.090408  -0.0022478
-0.12501    -0.20109   -0.011153
-0.16825    -0.32039   -0.018737
-0.18971    -0.44468   -0.025534
-0.18843    -0.57043   -0.031911
-0.16443    -0.69371   -0.038116
-0.11853    -0.81056   -0.044293
-0.052251    -0.91719    -0.05048
0.032201     -1.0101   -0.056677
0.13205     -1.0862   -0.062877
0.244      -1.143   -0.069078
0.36438     -1.1787   -0.075279
0.48923      -1.192    -0.08148
0.61442     -1.1826   -0.087681
0.73585     -1.1507   -0.093882
0.84952     -1.0974    -0.10008
0.95169     -1.0244    -0.10628
1.039    -0.93417    -0.11248
1.1086    -0.82965    -0.11869
1.1581    -0.71429    -0.12489
1.186    -0.59187    -0.13109
1.1913    -0.46643    -0.13729
1.1739     -0.3421    -0.14349
1.1342    -0.22296    -0.14969
1.0738    -0.11294    -0.15589
0.9944   -0.015652    -0.16209
0.89876    0.065695    -0.16829
0.79     0.12843    -0.17449
0.6717     0.17048    -0.18069
0.54775     0.19046     -0.1869
0.42223     0.18773     -0.1931
0.29927     0.16238     -0.1993
0.18292     0.11524    -0.20549
0.077036    0.047871    -0.21161
-0.014872   -0.037561    -0.21762
-0.0897    -0.13851    -0.22365
-0.14485    -0.25236    -0.23045
-0.17875    -0.37639    -0.24037
-0.1923    -0.50698    -0.25641
0  0  0
0  0  0
0  0  0
0  0  0
0  0  0
0  0  0
0  0  0
0  0  0
0  0  0
0.085663   -0.025218   -0.027249
0.18105   -0.042888   -0.039093
0.2809   -0.046088   -0.046505
0.37954   -0.031428   -0.052952
0.47361  0.00067704   -0.059144
0.56018    0.049255   -0.065313
0.63651     0.11269   -0.071496
0.70012     0.18888   -0.077692
0.74892     0.27532   -0.083892
0.7813     0.36915   -0.090093
0.79619     0.46728   -0.096294
0.79312     0.56649     -0.1025
0.77217     0.66352     -0.1087
0.73404     0.75516     -0.1149
0.67998     0.83841     -0.1211
0.61177     0.91052     -0.1273
0.53165     0.96912     -0.1335
0.44227      1.0123     -0.1397
0.34656      1.0386     -0.1459
0.24767      1.0472     -0.1521
0.14886      1.0377     -0.1583
0.053377      1.0106     -0.1645
-0.035635      0.9667     -0.1707
-0.11525     0.90742    -0.17691
-0.18284     0.83473    -0.18311
-0.23619     0.75103    -0.18931
-0.27354     0.65907    -0.19551
-0.29366     0.56187    -0.20171
-0.2959     0.46263    -0.20791
-0.28016     0.36463    -0.21411
-0.24699     0.27108    -0.22031
-0.19746     0.18506    -0.22651
-0.13323      0.1094     -0.2327
-0.056419      0.0466    -0.23886
0.030499  -0.0012451    -0.24499
0.12489   -0.032343    -0.25119
0.22411   -0.045059     -0.2579
0.32558   -0.038302    -0.26638
0.42526   -0.013906    -0.27781
0.083952    0.012672  -0.0047456
0.16461    0.036773   -0.011864
0.24534    0.074501   -0.019266
0.31859     0.12588   -0.025755
0.38115     0.18961   -0.031938
0.43102     0.26357   -0.038095
0.46665     0.34532   -0.044278
0.48691     0.43216   -0.050475
0.49115     0.52124   -0.056676
0.47923     0.60962   -0.062877
0.45154     0.69439   -0.069079
0.40899     0.77277    -0.07528
0.35299     0.84217    -0.08148
0.28537     0.90031   -0.087681
0.20835     0.94527   -0.093882
0.12448     0.97559    -0.10008
0.036518     0.99025    -0.10628
-0.052649     0.98878    -0.11248
-0.14008     0.97123    -0.11869
-0.22291     0.93817    -0.12489
-0.2984     0.89069    -0.13109
-0.36407     0.83035    -0.13729
-0.41776     0.75914    -0.14349
-0.4577     0.67941    -0.14969
-0.48258     0.59377    -0.15589
-0.49158     0.50505    -0.16209
-0.48441     0.41616    -0.16829
-0.46129     0.33003    -0.17449
-0.42299     0.24949    -0.18069
-0.37077     0.17719    -0.18689
-0.30636     0.11552     -0.1931
-0.23186    0.066498     -0.1993
-0.14975    0.031732    -0.20551
-0.062734    0.012364     -0.2117
0.026327   0.0090628    -0.21782
0.11456    0.022137    -0.22375
0.19921     0.05175    -0.22948
0.27783     0.09789    -0.23581
0.34879     0.15837    -0.24573
0.073801    0.055167    0.015547
0.14541     0.12143    0.014749
0.20691      0.1997   0.0082979
0.25393     0.28748   0.0016948
0.28425     0.38215  -0.0046527
0.29682     0.48065   -0.010875
0.29134     0.57976   -0.017069
0.26802     0.67623   -0.023264
0.22766     0.76691   -0.029462
0.17158     0.84881   -0.035662
0.10163     0.91923   -0.041863
0.020106     0.97586   -0.048064
-0.070306      1.0168   -0.054265
-0.16663      1.0408   -0.060466
-0.2657      1.0469   -0.066667
-0.36425      1.0351   -0.072868
-0.45904      1.0057   -0.079068
-0.54695     0.95958   -0.085269
-0.62509     0.89838    -0.09147
-0.69089     0.82406   -0.097671
-0.74218     0.73908    -0.10387
-0.77727     0.64623    -0.11007
-0.79501     0.54857    -0.11627
-0.79482     0.44931    -0.12247
-0.7767     0.35172    -0.12868
-0.74124       0.259    -0.13488
-0.68962     0.17422    -0.14108
-0.62354     0.10016    -0.14728
-0.54516     0.03926    -0.15348
-0.45706  -0.0064809    -0.15968
-0.36216   -0.035557    -0.16588
-0.26356   -0.047013    -0.17209
-0.16453   -0.040479    -0.17829
-0.068331    -0.01617    -0.18447
0.021833     0.02515    -0.19057
0.10294      0.0823    -0.19655
0.17232     0.15389    -0.20256
0.22806     0.23845    -0.20952
0.27054     0.33438    -0.22077
0.025218    0.085663   -0.027249
0.042888     0.18105   -0.039093
0.046088      0.2809   -0.046505
0.031428     0.37954   -0.052952
-0.00067704     0.47361   -0.059144
-0.049255     0.56018   -0.065313
-0.11269     0.63651   -0.071496
-0.18888     0.70012   -0.077692
-0.27532     0.74892   -0.083892
-0.36915      0.7813   -0.090093
-0.46728     0.79619   -0.096294
-0.56649     0.79312     -0.1025
-0.66352     0.77217     -0.1087
-0.75516     0.73404     -0.1149
-0.83841     0.67998     -0.1211
-0.91052     0.61177     -0.1273
-0.96912     0.53165     -0.1335
-1.0123     0.44227     -0.1397
-1.0386     0.34656     -0.1459
-1.0472     0.24767     -0.1521
-1.0377     0.14886     -0.1583
-1.0106    0.053377     -0.1645
-0.9667   -0.035635     -0.1707
-0.90742    -0.11525    -0.17691
-0.83473    -0.18284    -0.18311
-0.75103    -0.23619    -0.18931
-0.65907    -0.27354    -0.19551
-0.56187    -0.29366    -0.20171
-0.46263     -0.2959    -0.20791
-0.36463    -0.28016    -0.21411
-0.27108    -0.24699    -0.22031
-0.18506    -0.19746    -0.22651
-0.1094    -0.13323     -0.2327
-0.0466   -0.056419    -0.23886
0.0012451    0.030499    -0.24499
0.032343     0.12489    -0.25119
0.045059     0.22411     -0.2579
0.038302     0.32558    -0.26638
0.013906     0.42526    -0.27781
-0.012672    0.083952  -0.0047456
-0.036773     0.16461   -0.011864
-0.074501     0.24534   -0.019266
-0.12588     0.31859   -0.025755
-0.18961     0.38115   -0.031938
-0.26357     0.43102   -0.038095
-0.34532     0.46665   -0.044278
-0.43216     0.48691   -0.050475
-0.52124     0.49115   -0.056676
-0.60962     0.47923   -0.062877
-0.69439     0.45154   -0.069079
-0.77277     0.40899    -0.07528
-0.84217     0.35299    -0.08148
-0.90031     0.28537   -0.087681
-0.94527     0.20835   -0.093882
-0.97559     0.12448    -0.10008
-0.99025    0.036518    -0.10628
-0.98878   -0.052649    -0.11248
-0.97123    -0.14008    -0.11869
-0.93817    -0.22291    -0.12489
-0.89069     -0.2984    -0.13109
-0.83035    -0.36407    -0.13729
-0.75914    -0.41776    -0.14349
-0.67941     -0.4577    -0.14969
-0.59377    -0.48258    -0.15589
-0.50505    -0.49158    -0.16209
-0.41616    -0.48441    -0.16829
-0.33003    -0.46129    -0.17449
-0.24949    -0.42299    -0.18069
-0.17719    -0.37077    -0.18689
-0.11552    -0.30636     -0.1931
-0.066498    -0.23186     -0.1993
-0.031732    -0.14975    -0.20551
-0.012364   -0.062734     -0.2117
-0.0090628    0.026327    -0.21782
-0.022137     0.11456    -0.22375
-0.05175     0.19921    -0.22948
-0.09789     0.27783    -0.23581
-0.15837     0.34879    -0.24573
-0.055167    0.073801    0.015547
-0.12143     0.14541    0.014749
-0.1997     0.20691   0.0082979
-0.28748     0.25393   0.0016948
-0.38215     0.28425  -0.0046527
-0.48065     0.29682   -0.010875
-0.57976     0.29134   -0.017069
-0.67623     0.26802   -0.023264
-0.76691     0.22766   -0.029462
-0.84881     0.17158   -0.035662
-0.91923     0.10163   -0.041863
-0.97586    0.020106   -0.048064
-1.0168   -0.070306   -0.054265
-1.0408    -0.16663   -0.060466
-1.0469     -0.2657   -0.066667
-1.0351    -0.36425   -0.072868
-1.0057    -0.45904   -0.079068
-0.95958    -0.54695   -0.085269
-0.89838    -0.62509    -0.09147
-0.82406    -0.69089   -0.097671
-0.73908    -0.74218    -0.10387
-0.64623    -0.77727    -0.11007
-0.54857    -0.79501    -0.11627
-0.44931    -0.79482    -0.12247
-0.35172     -0.7767    -0.12868
-0.259    -0.74124    -0.13488
-0.17422    -0.68962    -0.14108
-0.10016    -0.62354    -0.14728
-0.03926    -0.54516    -0.15348
0.0064809    -0.45706    -0.15968
0.035557    -0.36216    -0.16588
0.047013    -0.26356    -0.17209
0.040479    -0.16453    -0.17829
0.01617   -0.068331    -0.18447
-0.02515    0.021833    -0.19057
-0.0823     0.10294    -0.19655
-0.15389     0.17232    -0.20256
-0.23845     0.22806    -0.20952
-0.33438     0.27054    -0.22077
-0.085663    0.025218   -0.027249
-0.18105    0.042888   -0.039093
-0.2809    0.046088   -0.046505
-0.37954    0.031428   -0.052952
-0.47361 -0.00067704   -0.059144
-0.56018   -0.049255   -0.065313
-0.63651    -0.11269   -0.071496
-0.70012    -0.18888   -0.077692
-0.74892    -0.27532   -0.083892
-0.7813    -0.36915   -0.090093
-0.79619    -0.46728   -0.096294
-0.79312    -0.56649     -0.1025
-0.77217    -0.66352     -0.1087
-0.73404    -0.75516     -0.1149
-0.67998    -0.83841     -0.1211
-0.61177    -0.91052     -0.1273
-0.53165    -0.96912     -0.1335
-0.44227     -1.0123     -0.1397
-0.34656     -1.0386     -0.1459
-0.24767     -1.0472     -0.1521
-0.14886     -1.0377     -0.1583
-0.053377     -1.0106     -0.1645
0.035635     -0.9667     -0.1707
0.11525    -0.90742    -0.17691
0.18284    -0.83473    -0.18311
0.23619    -0.75103    -0.18931
0.27354    -0.65907    -0.19551
0.29366    -0.56187    -0.20171
0.2959    -0.46263    -0.20791
0.28016    -0.36463    -0.21411
0.24699    -0.27108    -0.22031
0.19746    -0.18506    -0.22651
0.13323     -0.1094     -0.2327
0.056419     -0.0466    -0.23886
-0.030499   0.0012451    -0.24499
-0.12489    0.032343    -0.25119
-0.22411    0.045059     -0.2579
-0.32558    0.038302    -0.26638
-0.42526    0.013906    -0.27781
-0.083952   -0.012672  -0.0047456
-0.16461   -0.036773   -0.011864
-0.24534   -0.074501   -0.019266
-0.31859    -0.12588   -0.025755
-0.38115    -0.18961   -0.031938
-0.43102    -0.26357   -0.038095
-0.46665    -0.34532   -0.044278
-0.48691    -0.43216   -0.050475
-0.49115    -0.52124   -0.056676
-0.47923    -0.60962   -0.062877
-0.45154    -0.69439   -0.069079
-0.40899    -0.77277    -0.07528
-0.35299    -0.84217    -0.08148
-0.28537    -0.90031   -0.087681
-0.20835    -0.94527   -0.093882
-0.12448    -0.97559    -0.10008
-0.036518    -0.99025    -0.10628
0.052649    -0.98878    -0.11248
0.14008    -0.97123    -0.11869
0.22291    -0.93817    -0.12489
0.2984    -0.89069    -0.13109
0.36407    -0.83035    -0.13729
0.41776    -0.75914    -0.14349
0.4577    -0.67941    -0.14969
0.48258    -0.59377    -0.15589
0.49158    -0.50505    -0.16209
0.48441    -0.41616    -0.16829
0.46129    -0.33003    -0.17449
0.42299    -0.24949    -0.18069
0.37077    -0.17719    -0.18689
0.30636    -0.11552     -0.1931
0.23186   -0.066498     -0.1993
0.14975   -0.031732    -0.20551
0.062734   -0.012364     -0.2117
-0.026327  -0.0090628    -0.21782
-0.11456   -0.022137    -0.22375
-0.19921    -0.05175    -0.22948
-0.27783    -0.09789    -0.23581
-0.34879    -0.15837    -0.24573
-0.073801   -0.055167    0.015547
-0.14541    -0.12143    0.014749
-0.20691     -0.1997   0.0082979
-0.25393    -0.28748   0.0016948
-0.28425    -0.38215  -0.0046527
-0.29682    -0.48065   -0.010875
-0.29134    -0.57976   -0.017069
-0.26802    -0.67623   -0.023264
-0.22766    -0.76691   -0.029462
-0.17158    -0.84881   -0.035662
-0.10163    -0.91923   -0.041863
-0.020106    -0.97586   -0.048064
0.070306     -1.0168   -0.054265
0.16663     -1.0408   -0.060466
0.2657     -1.0469   -0.066667
0.36425     -1.0351   -0.072868
0.45904     -1.0057   -0.079068
0.54695    -0.95958   -0.085269
0.62509    -0.89838    -0.09147
0.69089    -0.82406   -0.097671
0.74218    -0.73908    -0.10387
0.77727    -0.64623    -0.11007
0.79501    -0.54857    -0.11627
0.79482    -0.44931    -0.12247
0.7767    -0.35172    -0.12868
0.74124      -0.259    -0.13488
0.68962    -0.17422    -0.14108
0.62354    -0.10016    -0.14728
0.54516    -0.03926    -0.15348
0.45706   0.0064809    -0.15968
0.36216    0.035557    -0.16588
0.26356    0.047013    -0.17209
0.16453    0.040479    -0.17829
0.068331     0.01617    -0.18447
-0.021833    -0.02515    -0.19057
-0.10294     -0.0823    -0.19655
-0.17232    -0.15389    -0.20256
-0.22806    -0.23845    -0.20952
-0.27054    -0.33438    -0.22077
-0.025218   -0.085663   -0.027249
-0.042888    -0.18105   -0.039093
-0.046088     -0.2809   -0.046505
-0.031428    -0.37954   -0.052952
0.00067704    -0.47361   -0.059144
0.049255    -0.56018   -0.065313
0.11269    -0.63651   -0.071496
0.18888    -0.70012   -0.077692
0.27532    -0.74892   -0.083892
0.36915     -0.7813   -0.090093
0.46728    -0.79619   -0.096294
0.56649    -0.79312     -0.1025
0.66352    -0.77217     -0.1087
0.75516    -0.73404     -0.1149
0.83841    -0.67998     -0.1211
0.91052    -0.61177     -0.1273
0.96912    -0.53165     -0.1335
1.0123    -0.44227     -0.1397
1.0386    -0.34656     -0.1459
1.0472    -0.24767     -0.1521
1.0377    -0.14886     -0.1583
1.0106   -0.053377     -0.1645
0.9667    0.035635     -0.1707
0.90742     0.11525    -0.17691
0.83473     0.18284    -0.18311
0.75103     0.23619    -0.18931
0.65907     0.27354    -0.19551
0.56187     0.29366    -0.20171
0.46263      0.2959    -0.20791
0.36463     0.28016    -0.21411
0.27108     0.24699    -0.22031
0.18506     0.19746    -0.22651
0.1094     0.13323     -0.2327
0.0466    0.056419    -0.23886
-0.0012451   -0.030499    -0.24499
-0.032343    -0.12489    -0.25119
-0.045059    -0.22411     -0.2579
-0.038302    -0.32558    -0.26638
-0.013906    -0.42526    -0.27781
0.012672   -0.083952  -0.0047456
0.036773    -0.16461   -0.011864
0.074501    -0.24534   -0.019266
0.12588    -0.31859   -0.025755
0.18961    -0.38115   -0.031938
0.26357    -0.43102   -0.038095
0.34532    -0.46665   -0.044278
0.43216    -0.48691   -0.050475
0.52124    -0.49115   -0.056676
0.60962    -0.47923   -0.062877
0.69439    -0.45154   -0.069079
0.77277    -0.40899    -0.07528
0.84217    -0.35299    -0.08148
0.90031    -0.28537   -0.087681
0.94527    -0.20835   -0.093882
0.97559    -0.12448    -0.10008
0.99025   -0.036518    -0.10628
0.98878    0.052649    -0.11248
0.97123     0.14008    -0.11869
0.93817     0.22291    -0.12489
0.89069      0.2984    -0.13109
0.83035     0.36407    -0.13729
0.75914     0.41776    -0.14349
0.67941      0.4577    -0.14969
0.59377     0.48258    -0.15589
0.50505     0.49158    -0.16209
0.41616     0.48441    -0.16829
0.33003     0.46129    -0.17449
0.24949     0.42299    -0.18069
0.17719     0.37077    -0.18689
0.11552     0.30636     -0.1931
0.066498     0.23186     -0.1993
0.031732     0.14975    -0.20551
0.012364    0.062734     -0.2117
0.0090628   -0.026327    -0.21782
0.022137    -0.11456    -0.22375
0.05175    -0.19921    -0.22948
0.09789    -0.27783    -0.23581
0.15837    -0.34879    -0.24573
0.055167   -0.073801    0.015547
0.12143    -0.14541    0.014749
0.1997    -0.20691   0.0082979
0.28748    -0.25393   0.0016948
0.38215    -0.28425  -0.0046527
0.48065    -0.29682   -0.010875