# vtk DataFile Version 3.0
VTK Output
ASCII
DATASET UNSTRUCTURED_GRID

POINTS 1025 float
-0.5        -0.5           0
0.5        -0.5           0
0.5         0.5           0
-0.5         0.5           0
-0.5         -0.5           10
0.5         -0.5           10
0.5          0.5           10
-0.5          0.5           10
-0.25        -0.5           0
-1.3751e-12        -0.5           0
0.25        -0.5           0
0.5       -0.25           0
0.5 -1.3751e-12           0
0.5        0.25           0
0.25         0.5           0
1.3751e-12         0.5           0
-0.25         0.5           0
-0.5        0.25           0
-0.5  1.3751e-12           0
-0.5       -0.25           0
-0.25         -0.5           10
-1.37512e-12         -0.5           10
0.25         -0.5           10
0.5        -0.25           10
0.5 -1.37512e-12           10
0.5         0.25           10
0.25          0.5           10
1.37512e-12          0.5           10
-0.25          0.5           10
-0.5         0.25           10
-0.5  1.37512e-12           10
-0.5        -0.25           10
-0.5        -0.5        0.25
-0.5        -0.5         0.5
-0.5        -0.5        0.75
-0.5        -0.5           1
-0.5        -0.5        1.25
-0.5        -0.5         1.5
-0.5        -0.5        1.75
-0.5        -0.5           2
-0.5        -0.5        2.25
-0.5        -0.5         2.5
-0.5        -0.5        2.75
-0.5        -0.5           3
-0.5        -0.5        3.25
-0.5        -0.5         3.5
-0.5        -0.5        3.75
-0.5        -0.5           4
-0.5        -0.5        4.25
-0.5        -0.5         4.5
-0.5        -0.5        4.75
-0.5        -0.5           5
-0.5        -0.5        5.25
-0.5        -0.5         5.5
-0.5        -0.5        5.75
-0.5        -0.5           6
-0.5        -0.5        6.25
-0.5        -0.5         6.5
-0.5        -0.5        6.75
-0.5        -0.5           7
-0.5        -0.5        7.25
-0.5        -0.5         7.5
-0.5        -0.5        7.75
-0.5        -0.5           8
-0.5        -0.5        8.25
-0.5        -0.5         8.5
-0.5        -0.5        8.75
-0.5        -0.5           9
-0.5        -0.5        9.25
-0.5        -0.5         9.5
-0.5        -0.5        9.75
0.5        -0.5        0.25
0.5        -0.5         0.5
0.5        -0.5        0.75
0.5        -0.5           1
0.5        -0.5        1.25
0.5        -0.5         1.5
0.5        -0.5        1.75
0.5        -0.5           2
0.5        -0.5        2.25
0.5        -0.5         2.5
0.5        -0.5        2.75
0.5        -0.5           3
0.5        -0.5        3.25
0.5        -0.5         3.5
0.5        -0.5        3.75
0.5        -0.5           4
0.5        -0.5        4.25
0.5        -0.5         4.5
0.5        -0.5        4.75
0.5        -0.5           5
0.5        -0.5        5.25
0.5        -0.5         5.5
0.5        -0.5        5.75
0.5        -0.5           6
0.5        -0.5        6.25
0.5        -0.5         6.5
0.5        -0.5        6.75
0.5        -0.5           7
0.5        -0.5        7.25
0.5        -0.5         7.5
0.5        -0.5        7.75
0.5        -0.5           8
0.5        -0.5        8.25
0.5        -0.5         8.5
0.5        -0.5        8.75
0.5        -0.5           9
0.5        -0.5        9.25
0.5        -0.5         9.5
0.5        -0.5        9.75
0.5         0.5        0.25
0.5         0.5         0.5
0.5         0.5        0.75
0.5         0.5           1
0.5         0.5        1.25
0.5         0.5         1.5
0.5         0.5        1.75
0.5         0.5           2
0.5         0.5        2.25
0.5         0.5         2.5
0.5         0.5        2.75
0.5         0.5           3
0.5         0.5        3.25
0.5         0.5         3.5
0.5         0.5        3.75
0.5         0.5           4
0.5         0.5        4.25
0.5         0.5         4.5
0.5         0.5        4.75
0.5         0.5           5
0.5         0.5        5.25
0.5         0.5         5.5
0.5         0.5        5.75
0.5         0.5           6
0.5         0.5        6.25
0.5         0.5         6.5
0.5         0.5        6.75
0.5         0.5           7
0.5         0.5        7.25
0.5         0.5         7.5
0.5         0.5        7.75
0.5         0.5           8
0.5         0.5        8.25
0.5         0.5         8.5
0.5         0.5        8.75
0.5         0.5           9
0.5         0.5        9.25
0.5         0.5         9.5
0.5         0.5        9.75
-0.5         0.5        0.25
-0.5         0.5         0.5
-0.5         0.5        0.75
-0.5         0.5           1
-0.5         0.5        1.25
-0.5         0.5         1.5
-0.5         0.5        1.75
-0.5         0.5           2
-0.5         0.5        2.25
-0.5         0.5         2.5
-0.5         0.5        2.75
-0.5         0.5           3
-0.5         0.5        3.25
-0.5         0.5         3.5
-0.5         0.5        3.75
-0.5         0.5           4
-0.5         0.5        4.25
-0.5         0.5         4.5
-0.5         0.5        4.75
-0.5         0.5           5
-0.5         0.5        5.25
-0.5         0.5         5.5
-0.5         0.5        5.75
-0.5         0.5           6
-0.5         0.5        6.25
-0.5         0.5         6.5
-0.5         0.5        6.75
-0.5         0.5           7
-0.5         0.5        7.25
-0.5         0.5         7.5
-0.5         0.5        7.75
-0.5         0.5           8
-0.5         0.5        8.25
-0.5         0.5         8.5
-0.5         0.5        8.75
-0.5         0.5           9
-0.5         0.5        9.25
-0.5         0.5         9.5
-0.5         0.5        9.75
-0.25       -0.25           0
-0.25  6.8756e-13           0
-0.25        0.25           0
-6.8756e-13       -0.25           0
-3.7821e-24           0           0
6.8756e-13        0.25           0
0.25       -0.25           0
0.25 -6.8756e-13           0
0.25        0.25           0
-0.25        -0.5        0.25
-0.25        -0.5         0.5
-0.25        -0.5        0.75
-0.25        -0.5           1
-0.25        -0.5        1.25
-0.25        -0.5         1.5
-0.25        -0.5        1.75
-0.25        -0.5           2
-0.25        -0.5        2.25
-0.25        -0.5         2.5
-0.25        -0.5        2.75
-0.25        -0.5           3
-0.25        -0.5        3.25
-0.25        -0.5         3.5
-0.25        -0.5        3.75
-0.25        -0.5           4
-0.25        -0.5        4.25
-0.25        -0.5         4.5
-0.25        -0.5        4.75
-0.25        -0.5           5
-0.25        -0.5        5.25
-0.25        -0.5         5.5
-0.25        -0.5        5.75
-0.25        -0.5           6
-0.25        -0.5        6.25
-0.25        -0.5         6.5
-0.25        -0.5        6.75
-0.25        -0.5           7
-0.25        -0.5        7.25
-0.25        -0.5         7.5
-0.25        -0.5        7.75
-0.25        -0.5           8
-0.25        -0.5        8.25
-0.25        -0.5         8.5
-0.25        -0.5        8.75
-0.25        -0.5           9
-0.25        -0.5        9.25
-0.25        -0.5         9.5
-0.25        -0.5        9.75
-1.3751e-12        -0.5        0.25
-1.3751e-12        -0.5         0.5
-1.3751e-12        -0.5        0.75
-1.3751e-12        -0.5           1
-1.3751e-12        -0.5        1.25
-1.3751e-12        -0.5         1.5
-1.3751e-12        -0.5        1.75
-1.3751e-12        -0.5           2
-1.3751e-12        -0.5        2.25
-1.3751e-12        -0.5         2.5
-1.3751e-12        -0.5        2.75
-1.3751e-12        -0.5           3
-1.3751e-12        -0.5        3.25
-1.3751e-12        -0.5         3.5
-1.3751e-12        -0.5        3.75
-1.3751e-12        -0.5           4
-1.3751e-12        -0.5        4.25
-1.3751e-12        -0.5         4.5
-1.3751e-12        -0.5        4.75
-1.3751e-12        -0.5           5
-1.3751e-12        -0.5        5.25
-1.3751e-12        -0.5         5.5
-1.3751e-12        -0.5        5.75
-1.3751e-12        -0.5           6
-1.3751e-12        -0.5        6.25
-1.3751e-12        -0.5         6.5
-1.3751e-12        -0.5        6.75
-1.3751e-12        -0.5           7
-1.3751e-12        -0.5        7.25
-1.3751e-12        -0.5         7.5
-1.3751e-12        -0.5        7.75
-1.3751e-12        -0.5           8
-1.3751e-12        -0.5        8.25
-1.3751e-12        -0.5         8.5
-1.3751e-12        -0.5        8.75
-1.3751e-12        -0.5           9
-1.3751e-12        -0.5        9.25
-1.3751e-12        -0.5         9.5
-1.3751e-12        -0.5        9.75
0.25        -0.5        0.25
0.25        -0.5         0.5
0.25        -0.5        0.75
0.25        -0.5           1
0.25        -0.5        1.25
0.25        -0.5         1.5
0.25        -0.5        1.75
0.25        -0.5           2
0.25        -0.5        2.25
0.25        -0.5         2.5
0.25        -0.5        2.75
0.25        -0.5           3
0.25        -0.5        3.25
0.25        -0.5         3.5
0.25        -0.5        3.75
0.25        -0.5           4
0.25        -0.5        4.25
0.25        -0.5         4.5
0.25        -0.5        4.75
0.25        -0.5           5
0.25        -0.5        5.25
0.25        -0.5         5.5
0.25        -0.5        5.75
0.25        -0.5           6
0.25        -0.5        6.25
0.25        -0.5         6.5
0.25        -0.5        6.75
0.25        -0.5           7
0.25        -0.5        7.25
0.25        -0.5         7.5
0.25        -0.5        7.75
0.25        -0.5           8
0.25        -0.5        8.25
0.25        -0.5         8.5
0.25        -0.5        8.75
0.25        -0.5           9
0.25        -0.5        9.25
0.25        -0.5         9.5
0.25        -0.5        9.75
0.5       -0.25        0.25
0.5       -0.25         0.5
0.5       -0.25        0.75
0.5       -0.25           1
0.5       -0.25        1.25
0.5       -0.25         1.5
0.5       -0.25        1.75
0.5       -0.25           2
0.5       -0.25        2.25
0.5       -0.25         2.5
0.5       -0.25        2.75
0.5       -0.25           3
0.5       -0.25        3.25
0.5       -0.25         3.5
0.5       -0.25        3.75
0.5       -0.25           4
0.5       -0.25        4.25
[...]
POINT_DATA 1025
VECTORS displacement double
0  0  0
0  0  0
0  0  0
0  0  0
0.5    -0.20711  -0.0033738
0.20711         0.5  -0.0033738
-0.5     0.20711  -0.0033738
-0.20711        -0.5  -0.0033738
0  0  0
0  0  0
0  0  0
0  0  0
0  0  0
0  0  0
0  0  0
0  0  0
0  0  0
0  0  0
0  0  0
0  0  0
0.42678    -0.03033  -0.0061819
0.35355     0.14645  -0.0031793
0.28033     0.32322 -0.00027477
0.03033     0.42678  -0.0061819
-0.14645     0.35355  -0.0031793
-0.32322     0.28033 -0.00027477
-0.42678     0.03033  -0.0061819
-0.35355    -0.14645  -0.0031793
-0.28033    -0.32322 -0.00027477
-0.03033    -0.42678  -0.0061819
0.14645    -0.35355  -0.0031793
0.32322    -0.28033 -0.00027477
0.0088227  -0.0084617 -3.2081e-05
0.019284   -0.018345 -0.00014825
0.029665   -0.027771 -0.00023589
0.040142   -0.036924 -0.00031621
0.050792   -0.045865 -0.00039385
0.061616   -0.054596 -0.00047015
0.072611   -0.063113 -0.00054617
0.083771   -0.071411 -0.00062223
0.095092   -0.079488 -0.00069832
0.10657   -0.087341 -0.00077444
0.1182   -0.094967 -0.00085056
0.12998    -0.10236 -0.00092668
0.1419    -0.10952  -0.0010028
0.15396    -0.11645  -0.0010789
0.16615    -0.12314   -0.001155
0.17847    -0.12959  -0.0012312
0.19092    -0.13579  -0.0013073
0.20349    -0.14175  -0.0013834
0.21617    -0.14745  -0.0014595
0.22896    -0.15291  -0.0015357
0.24186    -0.15812  -0.0016118
0.25485    -0.16307  -0.0016879
0.26794    -0.16776   -0.001764
0.28112     -0.1722  -0.0018401
0.29439    -0.17637  -0.0019163
0.30773    -0.18029  -0.0019924
0.32115    -0.18394  -0.0020685
0.33464    -0.18732  -0.0021446
0.3482    -0.19044  -0.0022208
0.36181     -0.1933  -0.0022969
0.37547    -0.19588   -0.002373
0.38918     -0.1982  -0.0024491
0.40294    -0.20024  -0.0025251
0.41673    -0.20201  -0.0026007
0.43056    -0.20352  -0.0026759
0.44441    -0.20474  -0.0027515
0.45829    -0.20569  -0.0028341
0.47218    -0.20637  -0.0029443
0.48609    -0.20681  -0.0031135
0.0084617   0.0088227 -3.2081e-05
0.018345    0.019284 -0.00014825
0.027771    0.029665 -0.00023589
0.036924    0.040142 -0.00031621
0.045865    0.050792 -0.00039385
0.054596    0.061616 -0.00047015
0.063113    0.072611 -0.00054617
0.071411    0.083771 -0.00062223
0.079488    0.095092 -0.00069832
0.087341     0.10657 -0.00077444
0.094967      0.1182 -0.00085056
0.10236     0.12998 -0.00092668
0.10952      0.1419  -0.0010028
0.11645     0.15396  -0.0010789
0.12314     0.16615   -0.001155
0.12959     0.17847  -0.0012312
0.13579     0.19092  -0.0013073
0.14175     0.20349  -0.0013834
0.14745     0.21617  -0.0014595
0.15291     0.22896  -0.0015357
0.15812     0.24186  -0.0016118
0.16307     0.25485  -0.0016879
0.16776     0.26794   -0.001764
0.1722     0.28112  -0.0018401
0.17637     0.29439  -0.0019163
0.18029     0.30773  -0.0019924
0.18394     0.32115  -0.0020685
0.18732     0.33464  -0.0021446
0.19044      0.3482  -0.0022208
0.1933     0.36181  -0.0022969
0.19588     0.37547   -0.002373
0.1982     0.38918  -0.0024491
0.20024     0.40294  -0.0025251
0.20201     0.41673  -0.0026007
0.20352     0.43056  -0.0026759
0.20474     0.44441  -0.0027515
0.20569     0.45829  -0.0028341
0.20637     0.47218  -0.0029443
0.20681     0.48609  -0.0031135
-0.0088227   0.0084617 -3.2081e-05
-0.019284    0.018345 -0.00014825
-0.029665    0.027771 -0.00023589
-0.040142    0.036924 -0.00031621
-0.050792    0.045865 -0.00039385
-0.061616    0.054596 -0.00047015
-0.072611    0.063113 -0.00054617
-0.083771    0.071411 -0.00062223
-0.095092    0.079488 -0.00069832
-0.10657    0.087341 -0.00077444
-0.1182    0.094967 -0.00085056
-0.12998     0.10236 -0.00092668
-0.1419     0.10952  -0.0010028
-0.15396     0.11645  -0.0010789
-0.16615     0.12314   -0.001155
-0.17847     0.12959  -0.0012312
-0.19092     0.13579  -0.0013073
-0.20349     0.14175  -0.0013834
-0.21617     0.14745  -0.0014595
-0.22896     0.15291  -0.0015357
-0.24186     0.15812  -0.0016118
-0.25485     0.16307  -0.0016879
-0.26794     0.16776   -0.001764
-0.28112      0.1722  -0.0018401
-0.29439     0.17637  -0.0019163
-0.30773     0.18029  -0.0019924
-0.32115     0.18394  -0.0020685
-0.33464     0.18732  -0.0021446
-0.3482     0.19044  -0.0022208
-0.36181      0.1933  -0.0022969
-0.37547     0.19588   -0.002373
-0.38918      0.1982  -0.0024491
-0.40294     0.20024  -0.0025251
-0.41673     0.20201  -0.0026007
-0.43056     0.20352  -0.0026759
-0.44441     0.20474  -0.0027515
-0.45829     0.20569  -0.0028341
-0.47218     0.20637  -0.0029443
-0.48609     0.20681  -0.0031135
-0.0084617  -0.0088227 -3.2081e-05
-0.018345   -0.019284 -0.00014825
-0.027771   -0.029665 -0.00023589
-0.036924   -0.040142 -0.00031621
-0.045865   -0.050792 -0.00039385
-0.054596   -0.061616 -0.00047015
-0.063113   -0.072611 -0.00054617
-0.071411   -0.083771 -0.00062223
-0.079488   -0.095092 -0.00069832
-0.087341    -0.10657 -0.00077444
-0.094967     -0.1182 -0.00085056
-0.10236    -0.12998 -0.00092668
-0.10952     -0.1419  -0.0010028
-0.11645    -0.15396  -0.0010789
-0.12314    -0.16615   -0.001155
-0.12959    -0.17847  -0.0012312
-0.13579    -0.19092  -0.0013073
-0.14175    -0.20349  -0.0013834
-0.14745    -0.21617  -0.0014595
-0.15291    -0.22896  -0.0015357
-0.15812    -0.24186  -0.0016118
-0.16307    -0.25485  -0.0016879
-0.16776    -0.26794   -0.001764
-0.1722    -0.28112  -0.0018401
-0.17637    -0.29439  -0.0019163
-0.18029    -0.30773  -0.0019924
-0.18394    -0.32115  -0.0020685
-0.18732    -0.33464  -0.0021446
-0.19044     -0.3482  -0.0022208
-0.1933    -0.36181  -0.0022969
-0.19588    -0.37547   -0.002373
-0.1982    -0.38918  -0.0024491
-0.20024    -0.40294  -0.0025251
-0.20201    -0.41673  -0.0026007
-0.20352    -0.43056  -0.0026759
-0.20474    -0.44441  -0.0027515
-0.20569    -0.45829  -0.0028341
-0.20637    -0.47218  -0.0029443
-0.20681    -0.48609  -0.0031135
0  0  0
0  0  0
0  0  0
0  0  0
0  0  0
0  0  0
0  0  0
0  0  0
0  0  0
0.0092727  -0.0044039  -0.0024602
0.019104  -0.0089351   -0.003106
0.029171   -0.013401  -0.0031999
0.039318   -0.017646  -0.0032699
0.049542   -0.021691  -0.0033447
0.059843   -0.025534  -0.0034208
0.070217   -0.029173  -0.0034969
0.080662   -0.032607   -0.003573
0.091172   -0.035835  -0.0036491
0.10174   -0.038856  -0.0037252
0.11237   -0.041668  -0.0038013
0.12305   -0.044271  -0.0038775
0.13378   -0.046663  -0.0039536
0.14456   -0.048843  -0.0040297
0.15538   -0.050811  -0.0041058
0.16623   -0.052566  -0.0041819
0.17712   -0.054107  -0.0042581
0.18803   -0.055433  -0.0043342
0.19897   -0.056545  -0.0044103
0.20993   -0.057441  -0.0044864
0.2209   -0.058121  -0.0045626
0.23189   -0.058586  -0.0046387
0.24288   -0.058834  -0.0047148
0.25387   -0.058866  -0.0047909
0.26486   -0.058681   -0.004867
0.27585   -0.058281  -0.0049432
0.28683   -0.057664  -0.0050193
0.29779   -0.056832  -0.0050954
0.30874   -0.055784  -0.0051715
0.31966   -0.054521  -0.0052477
0.33055   -0.053044  -0.0053238
0.34142   -0.051352  -0.0053999
0.35224   -0.049447   -0.005476
0.36303   -0.047329  -0.0055519
0.37378   -0.044999  -0.0056276
0.38448   -0.042456  -0.0057034
0.39512   -0.039698  -0.0057815
0.40571   -0.036725  -0.0058706
0.41624   -0.033562  -0.0059922
0.0096941  0.00016292 -6.7165e-05
0.018943  0.00045929 -0.00015213
0.028715  0.00092965  -0.0002401
0.038531   0.0015894 -0.00031842
0.04833   0.0024428 -0.00039421
0.058109   0.0034894 -0.00047005
0.067865   0.0047285 -0.00054608
0.077594   0.0061593 -0.00062219
0.087294   0.0077812 -0.00069831
0.096959   0.0095937 -0.00077444
0.10659    0.011596 -0.00085056
0.11617    0.013787 -0.00092668
0.12572    0.016167  -0.0010028
0.13521    0.018733  -0.0010789
0.14465    0.021486   -0.001155
0.15404    0.024424  -0.0012312
0.16336    0.027546  -0.0013073
0.17262    0.030851  -0.0013834
0.18182    0.034338  -0.0014595
0.19094    0.038005  -0.0015357
0.2     0.04185  -0.0016118
0.20897    0.045873  -0.0016879
0.21786    0.050072   -0.001764
0.22667    0.054444  -0.0018401
0.23539    0.058989  -0.0019163
0.24402    0.063705  -0.0019924
0.25256     0.06859  -0.0020685
0.26099    0.073642  -0.0021446
0.26933    0.078858  -0.0022208
0.27756    0.084238  -0.0022969
0.28569    0.089778   -0.002373
0.2937    0.095477  -0.0024491
0.3016     0.10133  -0.0025253
0.30939     0.10734  -0.0026014
0.31705     0.11351  -0.0026771
0.32459     0.11982  -0.0027517
0.332     0.12628  -0.0028245
0.33928      0.1329  -0.0028992
0.34644     0.13965  -0.0030034
0.0091255   0.0047821   0.0023052
0.01867   0.0099142   0.0027955
0.028258    0.015321   0.0027226
0.037743    0.020888   0.0026352
0.047113    0.026641   0.0025568
0.056367    0.032576   0.0024807
0.065503    0.038693   0.0024047
0.074517    0.044989   0.0023286
0.083405    0.051461   0.0022525
0.092163    0.058106   0.0021763
0.10079    0.064923   0.0021002
0.10928    0.071907   0.0020241
0.11763    0.079058    0.001948
0.12584    0.086371   0.0018719
0.13391    0.093844   0.0017957
0.14182     0.10147   0.0017196
0.14958     0.10926   0.0016435
0.15719      0.1172   0.0015674
0.16465     0.12528   0.0014912
0.17194     0.13351   0.0014151
0.17906     0.14188    0.001339
0.18603     0.15039   0.0012629
0.19282     0.15903   0.0011868
0.19944     0.16781   0.0011106
0.20589     0.17672   0.0010345
0.21216     0.18575  0.00095839
0.21825      0.1949  0.00088227
0.22416     0.20417  0.00080615
0.22989     0.21355  0.00073002
0.23543     0.22305   0.0006539
0.24079     0.23265  0.00057777
0.24595     0.24236  0.00050166
0.25092     0.25216  0.00042558
0.2557     0.26207  0.00034964
0.26028     0.27206  0.00027397
0.26467     0.28214  0.00019844
0.26884     0.29231  0.00012106
0.27282     0.30256   3.359e-05
0.27661     0.31289 -8.7336e-05
0.0044039   0.0092727  -0.0024602
0.0089351    0.019104   -0.003106
0.013401    0.029171  -0.0031999
0.017646    0.039318  -0.0032699
0.021691    0.049542  -0.0033447
0.025534    0.059843  -0.0034208
0.029173    0.070217  -0.0034969
0.032607    0.080662   -0.003573
0.035835    0.091172  -0.0036491
0.038856     0.10174  -0.0037252
0.041668     0.11237  -0.0038013
0.044271     0.12305  -0.0038775
0.046663     0.13378  -0.0039536
0.048843     0.14456  -0.0040297
0.050811     0.15538  -0.0041058
0.052566     0.16623  -0.0041819
0.054107     0.17712  -0.0042581
0.055433     0.18803  -0.0043342
0.056545     0.19897  -0.0044103
0.057441     0.20993  -0.0044864
0.058121      0.2209  -0.0045626
0.058586     0.23189  -0.0046387
0.058834     0.24288  -0.0047148
0.058866     0.25387  -0.0047909
0.058681     0.26486   -0.004867
0.058281     0.27585  -0.0049432
0.057664     0.28683  -0.0050193
0.056832     0.29779  -0.0050954
0.055784     0.30874  -0.0051715
0.054521     0.31966  -0.0052477
0.053044     0.33055  -0.0053238
0.051352     0.34142  -0.0053999
0.049447     0.35224   -0.005476
0.047329     0.36303  -0.0055519
0.044999     0.37378  -0.0056276
0.042456     0.38448  -0.0057034
0.039698     0.39512  -0.0057815
0.036725     0.40571  -0.0058706
0.033562     0.41624  -0.0059922
-0.00016292   0.0096941 -6.7165e-05
-0.00045929    0.018943 -0.00015213
-0.00092965    0.028715  -0.0002401
-0.0015894    0.038531 -0.00031842
-0.0024428     0.04833 -0.00039421
-0.0034894    0.058109 -0.00047005
-0.0047285    0.067865 -0.00054608
-0.0061593    0.077594 -0.00062219
-0.0077812    0.087294 -0.00069831
-0.0095937    0.096959 -0.00077444
-0.011596     0.10659 -0.00085056
-0.013787     0.11617 -0.00092668
-0.016167     0.12572  -0.0010028
-0.018733     0.13521  -0.0010789
-0.021486     0.14465   -0.001155
-0.024424     0.15404  -0.0012312
-0.027546     0.16336  -0.0013073
-0.030851     0.17262  -0.0013834
-0.034338     0.18182  -0.0014595
-0.038005     0.19094  -0.0015357
-0.04185         0.2  -0.0016118
-0.045873     0.20897  -0.0016879
-0.050072     0.21786   -0.001764
-0.054444     0.22667  -0.0018401
-0.058989     0.23539  -0.0019163
-0.063705     0.24402  -0.0019924
-0.06859     0.25256  -0.0020685
-0.073642     0.26099  -0.0021446
-0.078858     0.26933  -0.0022208
-0.084238     0.27756  -0.0022969
-0.089778     0.28569   -0.002373
-0.095477      0.2937  -0.0024491
-0.10133      0.3016  -0.0025253
-0.10734     0.30939  -0.0026014
-0.11351     0.31705  -0.0026771
-0.11982     0.32459  -0.0027517
-0.12628       0.332  -0.0028245
-0.1329     0.33928  -0.0028992
-0.13965     0.34644  -0.0030034
-0.0047821   0.0091255   0.0023052
-0.0099142     0.01867   0.0027955
-0.015321    0.028258   0.0027226
-0.020888    0.037743   0.0026352
-0.026641    0.047113   0.0025568
-0.032576    0.056367   0.0024807
-0.038693    0.065503   0.0024047
-0.044989    0.074517   0.0023286
-0.051461    0.083405   0.0022525
-0.058106    0.092163   0.0021763
-0.064923     0.10079   0.0021002
-0.071907     0.10928   0.0020241
-0.079058     0.11763    0.001948
-0.086371     0.12584   0.0018719
-0.093844     0.13391   0.0017957
-0.10147     0.14182   0.0017196
-0.10926     0.14958   0.0016435
-0.1172     0.15719   0.0015674
-0.12528     0.16465   0.0014912
-0.13351     0.17194   0.0014151
-0.14188     0.17906    0.001339
-0.15039     0.18603   0.0012629
-0.15903     0.19282   0.0011868
-0.16781     0.19944   0.0011106
-0.17672     0.20589   0.0010345
-0.18575     0.21216  0.00095839
-0.1949     0.21825  0.00088227
-0.20417     0.22416  0.00080615
-0.21355     0.22989  0.00073002
-0.22305     0.23543   0.0006539
-0.23265     0.24079  0.00057777
-0.24236     0.24595  0.00050166
-0.25216     0.25092  0.00042558
-0.26207      0.2557  0.00034964
-0.27206     0.26028  0.00027397
-0.28214     0.26467  0.00019844
-0.29231     0.26884  0.00012106
-0.30256     0.27282   3.359e-05
-0.31289     0.27661 -8.7336e-05
-0.0092727   0.0044039  -0.0024602
-0.019104   0.0089351   -0.003106
-0.029171    0.013401  -0.0031999
-0.039318    0.017646  -0.0032699
-0.049542    0.021691  -0.0033447
-0.059843    0.025534  -0.0034208
-0.070217    0.029173  -0.0034969
-0.080662    0.032607   -0.003573
-0.091172    0.035835  -0.0036491
-0.10174    0.038856  -0.0037252
-0.11237    0.041668  -0.0038013
-0.12305    0.044271  -0.0038775
-0.13378    0.046663  -0.0039536
-0.14456    0.048843  -0.0040297
-0.15538    0.050811  -0.0041058
-0.16623    0.052566  -0.0041819
-0.17712    0.054107  -0.0042581
-0.18803    0.055433  -0.0043342
-0.19897    0.056545  -0.0044103
-0.20993    0.057441  -0.0044864
-0.2209    0.058121  -0.0045626
-0.23189    0.058586  -0.0046387
-0.24288    0.058834  -0.0047148
-0.25387    0.058866  -0.0047909
-0.26486    0.058681   -0.004867
-0.27585    0.058281  -0.0049432
-0.28683    0.057664  -0.0050193
-0.29779    0.056832  -0.0050954
-0.30874    0.055784  -0.0051715
-0.31966    0.054521  -0.0052477
-0.33055    0.053044  -0.0053238
-0.34142    0.051352  -0.0053999
-0.35224    0.049447   -0.005476
-0.36303    0.047329  -0.0055519
-0.37378    0.044999  -0.0056276
-0.38448    0.042456  -0.0057034
-0.39512    0.039698  -0.0057815
-0.40571    0.036725  -0.0058706
-0.41624    0.033562  -0.0059922
-0.0096941 -0.00016292 -6.7165e-05
-0.018943 -0.00045929 -0.00015213
-0.028715 -0.00092965  -0.0002401
-0.038531  -0.0015894 -0.00031842
-0.04833  -0.0024428 -0.00039421
-0.058109  -0.0034894 -0.00047005
-0.067865  -0.0047285 -0.00054608
-0.077594  -0.0061593 -0.00062219
-0.087294  -0.0077812 -0.00069831
-0.096959  -0.0095937 -0.00077444
-0.10659   -0.011596 -0.00085056
-0.11617   -0.013787 -0.00092668
-0.12572   -0.016167  -0.0010028
-0.13521   -0.018733  -0.0010789
-0.14465   -0.021486   -0.001155
-0.15404   -0.024424  -0.0012312
-0.16336   -0.027546  -0.0013073
-0.17262   -0.030851  -0.0013834
-0.18182   -0.034338  -0.0014595
-0.19094   -0.038005  -0.0015357
-0.2    -0.04185  -0.0016118
-0.20897   -0.045873  -0.0016879
-0.21786   -0.050072   -0.001764
-0.22667   -0.054444  -0.0018401
-0.23539   -0.058989  -0.0019163
-0.24402   -0.063705  -0.0019924
-0.25256    -0.06859  -0.0020685
-0.26099   -0.073642  -0.0021446
-0.26933   -0.078858  -0.0022208
-0.27756   -0.084238  -0.0022969
-0.28569   -0.089778   -0.002373
-0.2937   -0.095477  -0.0024491
-0.3016    -0.10133  -0.0025253
-0.30939    -0.10734  -0.0026014
-0.31705    -0.11351  -0.0026771
-0.32459    -0.11982  -0.0027517
-0.332    -0.12628  -0.0028245
-0.33928     -0.1329  -0.0028992
-0.34644    -0.13965  -0.0030034
-0.0091255  -0.0047821   0.0023052
-0.01867  -0.0099142   0.0027955
-0.028258   -0.015321   0.0027226
-0.037743   -0.020888   0.0026352
-0.047113   -0.026641   0.0025568
-0.056367   -0.032576   0.0024807
-0.065503   -0.038693   0.0024047
-0.074517   -0.044989   0.0023286
-0.083405   -0.051461   0.0022525
-0.092163   -0.058106   0.0021763
-0.10079   -0.064923   0.0021002
-0.10928   -0.071907   0.0020241
-0.11763   -0.079058    0.001948
-0.12584   -0.086371   0.0018719
-0.13391   -0.093844   0.0017957
-0.14182    -0.10147   0.0017196
-0.14958    -0.10926   0.0016435
-0.15719     -0.1172   0.0015674
-0.16465    -0.12528   0.0014912
-0.17194    -0.13351   0.0014151
-0.17906    -0.14188    0.001339
-0.18603    -0.15039   0.0012629
-0.19282    -0.15903   0.0011868
-0.19944    -0.16781   0.0011106
-0.20589    -0.17672   0.0010345
-0.21216    -0.18575  0.00095839
-0.21825     -0.1949  0.00088227
-0.22416    -0.20417  0.00080615
-0.22989    -0.21355  0.00073002
-0.23543    -0.22305   0.0006539
-0.24079    -0.23265  0.00057777
-0.24595    -0.24236  0.00050166
-0.25092    -0.25216  0.00042558
-0.2557    -0.26207  0.00034964
-0.26028    -0.27206  0.00027397
-0.26467    -0.28214  0.00019844
-0.26884    -0.29231  0.00012106
-0.27282    -0.30256   3.359e-05
-0.27661    -0.31289 -8.7336e-05
-0.0044039  -0.0092727  -0.0024602
-0.0089351   -0.019104   -0.003106
-0.013401   -0.029171  -0.0031999
-0.017646   -0.039318  -0.0032699
-0.021691   -0.049542  -0.0033447
-0.025534   -0.059843  -0.0034208
-0.029173   -0.070217  -0.0034969
-0.032607   -0.080662   -0.003573
-0.035835   -0.091172  -0.0036491
-0.038856    -0.10174  -0.0037252
-0.041668    -0.11237  -0.0038013
-0.044271    -0.12305  -0.0038775
-0.046663    -0.13378  -0.0039536
-0.048843    -0.14456  -0.0040297
-0.050811    -0.15538  -0.0041058
-0.052566    -0.16623  -0.0041819
-0.054107    -0.17712  -0.0042581
-0.055433    -0.18803  -0.0043342
-0.056545    -0.19897  -0.0044103
-0.057441    -0.20993  -0.0044864
-0.058121     -0.2209  -0.0045626
-0.058586    -0.23189  -0.0046387
-0.058834    -0.24288  -0.0047148
-0.058866    -0.25387  -0.0047909
-0.058681    -0.26486   -0.004867
-0.058281    -0.27585  -0.0049432
-0.057664    -0.28683  -0.0050193
-0.056832    -0.29779  -0.0050954
-0.055784    -0.30874  -0.0051715
-0.054521    -0.31966  -0.0052477
-0.053044    -0.33055  -0.0053238
-0.051352    -0.34142  -0.0053999
-0.049447    -0.35224   -0.005476
-0.047329    -0.36303  -0.0055519
-0.044999    -0.37378  -0.0056276
-0.042456    -0.38448  -0.0057034
-0.039698    -0.39512  -0.0057815
-0.036725    -0.40571  -0.0058706
-0.033562    -0.41624  -0.0059922
0.00016292  -0.0096941 -6.7165e-05
0.00045929   -0.018943 -0.00015213
0.00092965   -0.028715  -0.0002401
0.0015894   -0.038531 -0.00031842
0.0024428    -0.04833 -0.00039421
0.0034894   -0.058109 -0.00047005
0.0047285   -0.067865 -0.00054608
0.0061593   -0.077594 -0.00062219
0.0077812   -0.087294 -0.00069831
0.0095937   -0.096959 -0.00077444
0.011596    -0.10659 -0.00085056
0.013787    -0.11617 -0.00092668
0.016167    -0.12572  -0.0010028
0.018733    -0.13521  -0.0010789
0.021486    -0.14465   -0.001155
0.024424    -0.15404  -0.0012312
0.027546    -0.16336  -0.0013073
0.030851    -0.17262  -0.0013834
0.034338    -0.18182  -0.0014595
0.038005    -0.19094  -0.0015357
0.04185        -0.2  -0.0016118
0.045873    -0.20897  -0.0016879
0.050072    -0.21786   -0.001764
0.054444    -0.22667  -0.0018401
0.058989    -0.23539  -0.0019163
0.063705    -0.24402  -0.0019924
0.06859    -0.25256  -0.0020685
0.073642    -0.26099  -0.0021446
0.078858    -0.26933  -0.0022208
0.084238    -0.27756  -0.0022969
0.089778    -0.28569   -0.002373
0.095477     -0.2937  -0.0024491
0.10133     -0.3016  -0.0025253
0.10734    -0.30939  -0.0026014
0.11351    -0.31705  -0.0026771
0.11982    -0.32459  -0.0027517
0.12628      -0.332  -0.0028245