# vtk DataFile Version 3.0
VTK Output
ASCII
DATASET UNSTRUCTURED_GRID

POINTS 1025 float
-0.5        -0.5           0
0.5        -0.5           0
0.5         0.5           0
-0.5         0.5           0
-0.5         -0.5           10
0.5         -0.5           10
0.5          0.5           10
-0.5          0.5           10
-0.25        -0.5           0
-1.3751e-12        -0.5           0
0.25        -0.5           0
0.5       -0.25           0
0.5 -1.3751e-12           0
0.5        0.25           0
0.25         0.5           0
1.3751e-12         0.5           0
-0.25         0.5           0
-0.5        0.25           0
-0.5  1.3751e-12           0
-0.5       -0.25           0
-0.25         -0.5           10
-1.37512e-12         -0.5           10
0.25         -0.5           10
0.5        -0.25           10
0.5 -1.37512e-12           10
0.5         0.25           10
0.25          0.5           10
1.37512e-12          0.5           10
-0.25          0.5           10
-0.5         0.25           10
-0.5  1.37512e-12           10
-0.5        -0.25           10
-0.5        -0.5        0.25
-0.5        -0.5         0.5
-0.5        -0.5        0.75
-0.5        -0.5           1
-0.5        -0.5        1.25
-0.5        -0.5         1.5
-0.5        -0.5        1.75
-0.5        -0.5           2
-0.5        -0.5        2.25
-0.5        -0.5         2.5
-0.5        -0.5        2.75
-0.5        -0.5           3
-0.5        -0.5        3.25
-0.5        -0.5         3.5
-0.5        -0.5        3.75
-0.5        -0.5           4
-0.5        -0.5        4.25
-0.5        -0.5         4.5
-0.5        -0.5        4.75
-0.5        -0.5           5
-0.5        -0.5        5.25
-0.5        -0.5         5.5
-0.5        -0.5        5.75
-0.5        -0.5           6
-0.5        -0.5        6.25
-0.5        -0.5         6.5
-0.5        -0.5        6.75
-0.5        -0.5           7
-0.5        -0.5        7.25
-0.5        -0.5         7.5
-0.5        -0.5        7.75
-0.5        -0.5           8
-0.5        -0.5        8.25
-0.5        -0.5         8.5
-0.5        -0.5        8.75
-0.5        -0.5           9
-0.5        -0.5        9.25
-0.5        -0.5         9.5
-0.5        -0.5        9.75
0.5        -0.5        0.25
0.5        -0.5         0.5
0.5        -0.5        0.75
0.5        -0.5           1
0.5        -0.5        1.25
0.5        -0.5         1.5
0.5        -0.5        1.75
0.5        -0.5           2
0.5        -0.5        2.25
0.5        -0.5         2.5
0.5        -0.5        2.75
0.5        -0.5           3
0.5        -0.5        3.25
0.5        -0.5         3.5
0.5        -0.5        3.75
0.5        -0.5           4
0.5        -0.5        4.25
0.5        -0.5         4.5
0.5        -0.5        4.75
0.5        -0.5           5
0.5        -0.5        5.25
0.5        -0.5         5.5
0.5        -0.5        5.75
0.5        -0.5           6
0.5        -0.5        6.25
0.5        -0.5         6.5
0.5        -0.5        6.75
0.5        -0.5           7
0.5        -0.5        7.25
0.5        -0.5         7.5
0.5        -0.5        7.75
0.5        -0.5           8
0.5        -0.5        8.25
0.5        -0.5         8.5
0.5        -0.5        8.75
0.5        -0.5           9
0.5        -0.5        9.25
0.5        -0.5         9.5
0.5        -0.5        9.75
0.5         0.5        0.25
0.5         0.5         0.5
0.5         0.5        0.75
0.5         0.5           1
0.5         0.5        1.25
0.5         0.5         1.5
0.5         0.5        1.75
0.5         0.5           2
0.5         0.5        2.25
0.5         0.5         2.5
0.5         0.5        2.75
0.5         0.5           3
0.5         0.5        3.25
0.5         0.5         3.5
0.5         0.5        3.75
0.5         0.5           4
0.5         0.5        4.25
0.5         0.5         4.5
0.5         0.5        4.75
0.5         0.5           5
0.5         0.5        5.25
0.5         0.5         5.5
0.5         0.5        5.75
0.5         0.5           6
0.5         0.5        6.25
0.5         0.5         6.5
0.5         0.5        6.75
0.5         0.5           7
0.5         0.5        7.25
0.5         0.5         7.5
0.5         0.5        7.75
0.5         0.5           8
0.5         0.5        8.25
0.5         0.5         8.5
0.5         0.5        8.75
0.5         0.5           9
0.5         0.5        9.25
0.5         0.5         9.5
0.5         0.5        9.75
-0.5         0.5        0.25
-0.5         0.5         0.5
-0.5         0.5        0.75
-0.5         0.5           1
-0.5         0.5        1.25
-0.5         0.5         1.5
-0.5         0.5        1.75
-0.5         0.5           2
-0.5         0.5        2.25
-0.5         0.5         2.5
-0.5         0.5        2.75
-0.5         0.5           3
-0.5         0.5        3.25
-0.5         0.5         3.5
-0.5         0.5        3.75
-0.5         0.5           4
-0.5         0.5        4.25
-0.5         0.5         4.5
-0.5         0.5        4.75
-0.5         0.5           5
-0.5         0.5        5.25
-0.5         0.5         5.5
-0.5         0.5        5.75
-0.5         0.5           6
-0.5         0.5        6.25
-0.5         0.5         6.5
-0.5         0.5        6.75
-0.5         0.5           7
-0.5         0.5        7.25
-0.5         0.5         7.5
-0.5         0.5        7.75
-0.5         0.5           8
-0.5         0.5        8.25
-0.5         0.5         8.5
-0.5         0.5        8.75
-0.5         0.5           9
-0.5         0.5        9.25
-0.5         0.5         9.5
-0.5         0.5        9.75
-0.25       -0.25           0
-0.25  6.8756e-13           0
-0.25        0.25           0
-6.8756e-13       -0.25           0
-3.7821e-24           0           0
6.8756e-13        0.25           0
0.25       -0.25           0
0.25 -6.8756e-13           0
0.25        0.25           0
-0.25        -0.5        0.25
-0.25        -0.5         0.5
-0.25        -0.5        0.75
-0.25        -0.5           1
-0.25        -0.5        1.25
-0.25        -0.5         1.5
-0.25        -0.5        1.75
-0.25        -0.5           2
-0.25        -0.5        2.25
-0.25        -0.5         2.5
-0.25        -0.5        2.75
-0.25        -0.5           3
-0.25        -0.5        3.25
-0.25        -0.5         3.5
-0.25        -0.5        3.75
-0.25        -0.5           4
-0.25        -0.5        4.25
-0.25        -0.5         4.5
-0.25        -0.5        4.75
-0.25        -0.5           5
-0.25        -0.5        5.25
-0.25        -0.5         5.5
-0.25        -0.5        5.75
-0.25        -0.5           6
-0.25        -0.5        6.25
-0.25        -0.5         6.5
-0.25        -0.5        6.75
-0.25        -0.5           7
-0.25        -0.5        7.25
-0.25        -0.5         7.5
-0.25        -0.5        7.75
-0.25        -0.5           8
-0.25        -0.5        8.25
-0.25        -0.5         8.5
-0.25        -0.5        8.75
-0.25        -0.5           9
-0.25        -0.5        9.25
-0.25        -0.5         9.5
-0.25        -0.5        9.75
-1.3751e-12        -0.5        0.25
-1.3751e-12        -0.5         0.5
-1.3751e-12        -0.5        0.75
-1.3751e-12        -0.5           1
-1.3751e-12        -0.5        1.25
-1.3751e-12        -0.5         1.5
-1.3751e-12        -0.5        1.75
-1.3751e-12        -0.5           2
-1.3751e-12        -0.5        2.25
-1.3751e-12        -0.5         2.5
-1.3751e-12        -0.5        2.75
-1.3751e-12        -0.5           3
-1.3751e-12        -0.5        3.25
-1.3751e-12        -0.5         3.5
-1.3751e-12        -0.5        3.75
-1.3751e-12        -0.5           4
-1.3751e-12        -0.5        4.25
-1.3751e-12        -0.5         4.5
-1.3751e-12        -0.5        4.75
-1.3751e-12        -0.5           5
-1.3751e-12        -0.5        5.25
-1.3751e-12        -0.5         5.5
-1.3751e-12        -0.5        5.75
-1.3751e-12        -0.5           6
-1.3751e-12        -0.5        6.25
-1.3751e-12        -0.5         6.5
-1.3751e-12        -0.5        6.75
-1.3751e-12        -0.5           7
-1.3751e-12        -0.5        7.25
-1.3751e-12        -0.5         7.5
-1.3751e-12        -0.5        7.75
-1.3751e-12        -0.5           8
-1.3751e-12        -0.5        8.25
-1.3751e-12        -0.5         8.5
-1.3751e-12        -0.5        8.75
-1.3751e-12        -0.5           9
-1.3751e-12        -0.5        9.25
-1.3751e-12        -0.5         9.5
-1.3751e-12        -0.5        9.75
0.25        -0.5        0.25
0.25        -0.5         0.5
0.25        -0.5        0.75
0.25        -0.5           1
0.25        -0.5        1.25
0.25        -0.5         1.5
0.25        -0.5        1.75
0.25        -0.5           2
0.25        -0.5        2.25
0.25        -0.5         2.5
0.25        -0.5        2.75
0.25        -0.5           3
0.25        -0.5        3.25
0.25        -0.5         3.5
0.25        -0.5        3.75
0.25        -0.5           4
0.25        -0.5        4.25
0.25        -0.5         4.5
0.25        -0.5        4.75
0.25        -0.5           5
0.25        -0.5        5.25
0.25        -0.5         5.5
0.25        -0.5        5.75
0.25        -0.5           6
0.25        -0.5        6.25
0.25        -0.5         6.5
0.25        -0.5        6.75
0.25        -0.5           7
0.25        -0.5        7.25
0.25        -0.5         7.5
0.25        -0.5        7.75
0.25        -0.5           8
0.25        -0.5        8.25
0.25        -0.5         8.5
0.25        -0.5        8.75
0.25        -0.5           9
0.25        -0.5        9.25
0.25        -0.5         9.5
0.25        -0.5        9.75
0.5       -0.25        0.25
0.5       -0.25         0.5
0.5       -0.25        0.75
0.5       -0.25           1
0.5       -0.25        1.25
0.5       -0.25         1.5
0.5       -0.25        1.75
0.5       -0.25           2
0.5       -0.25        2.25
0.5       -0.25         2.5
0.5       -0.25        2.75
0.5       -0.25           3
0.5       -0.25        3.25
0.5       -0.25         3.5
0.5       -0.25        3.75
0.5       -0.25           4
0.5       -0.25        4.25
[...]
POINT_DATA 1025
VECTORS displacement double
0  0  0
0  0  0
0  0  0
0  0  0
1.1935     0.63795    -0.40915
-0.63795      1.1935    -0.40915
-1.1935    -0.63795    -0.40915
0.63795     -1.1935    -0.40915
0  0  0
0  0  0
0  0  0
0  0  0
0  0  0
0  0  0
0  0  0
0  0  0
0  0  0
0  0  0
0  0  0
0  0  0
0.73565     0.77684    -0.42427
0.27779     0.91573     -0.3817
-0.18008      1.0546    -0.35137
-0.77684     0.73565    -0.42427
-0.91573     0.27779     -0.3817
-1.0546    -0.18008    -0.35137
-0.73565    -0.77684    -0.42427
-0.27779    -0.91573     -0.3817
0.18008     -1.0546    -0.35137
0.77684    -0.73565    -0.42427
0.91573    -0.27779     -0.3817
1.0546     0.18008    -0.35137
0.11081   -0.068678  -0.0029539
0.24685    -0.13733   -0.015442
0.39439    -0.17619   -0.026672
0.54611    -0.18279   -0.036694
0.69497     -0.1562   -0.045957
0.83404   -0.097662   -0.054906
0.95678   -0.010084   -0.063805
1.0574     0.10225   -0.072725
1.1309      0.2339   -0.081665
1.1738     0.37845   -0.090614
1.1841     0.52889   -0.099564
1.1612     0.67794    -0.10851
1.1062     0.81836    -0.11746
1.0218     0.94333    -0.12641
0.91211      1.0468    -0.13536
0.78242      1.1238    -0.14431
0.63904      1.1704    -0.15326
0.48891      1.1846    -0.16221
0.33931      1.1656    -0.17116
0.19752      1.1143    -0.18011
0.070388      1.0332    -0.18905
-0.035901     0.92619      -0.198
-0.1162     0.79855    -0.20695
-0.1666     0.65643     -0.2159
-0.18468     0.50672    -0.22485
-0.16954     0.35668     -0.2338
-0.12193     0.21359    -0.24275
-0.044157      0.0844     -0.2517
0.060015   -0.024635    -0.26065
0.18553    -0.10822     -0.2696
0.3263    -0.16231    -0.27856
0.47548    -0.18429    -0.28751
0.62582    -0.17311    -0.29643
0.76998    -0.12933    -0.30523
0.90096   -0.054959     -0.3138
1.0124    0.046931    -0.32237
1.0987     0.17288    -0.33231
1.1559     0.31879    -0.34754
1.1837     0.47788     -0.3726
0.068678     0.11081  -0.0029539
0.13733     0.24685   -0.015442
0.17619     0.39439   -0.026672
0.18279     0.54611   -0.036694
0.1562     0.69497   -0.045957
0.097662     0.83404   -0.054906
0.010084     0.95678   -0.063805
-0.10225      1.0574   -0.072725
-0.2339      1.1309   -0.081665
-0.37845      1.1738   -0.090614
-0.52889      1.1841   -0.099564
-0.67794      1.1612    -0.10851
-0.81836      1.1062    -0.11746
-0.94333      1.0218    -0.12641
-1.0468     0.91211    -0.13536
-1.1238     0.78242    -0.14431
-1.1704     0.63904    -0.15326
-1.1846     0.48891    -0.16221
-1.1656     0.33931    -0.17116
-1.1143     0.19752    -0.18011
-1.0332    0.070388    -0.18905
-0.92619   -0.035901      -0.198
-0.79855     -0.1162    -0.20695
-0.65643     -0.1666     -0.2159
-0.50672    -0.18468    -0.22485
-0.35668    -0.16954     -0.2338
-0.21359    -0.12193    -0.24275
-0.0844   -0.044157     -0.2517
0.024635    0.060015    -0.26065
0.10822     0.18553     -0.2696
0.16231      0.3263    -0.27856
0.18429     0.47548    -0.28751
0.17311     0.62582    -0.29643
0.12933     0.76998    -0.30523
0.054959     0.90096     -0.3138
-0.046931      1.0124    -0.32237
-0.17288      1.0987    -0.33231
-0.31879      1.1559    -0.34754
-0.47788      1.1837     -0.3726
-0.11081    0.068678  -0.0029539
-0.24685     0.13733   -0.015442
-0.39439     0.17619   -0.026672
-0.54611     0.18279   -0.036694
-0.69497      0.1562   -0.045957
-0.83404    0.097662   -0.054906
-0.95678    0.010084   -0.063805
-1.0574    -0.10225   -0.072725
-1.1309     -0.2339   -0.081665
-1.1738    -0.37845   -0.090614
-1.1841    -0.52889   -0.099564
-1.1612    -0.67794    -0.10851
-1.1062    -0.81836    -0.11746
-1.0218    -0.94333    -0.12641
-0.91211     -1.0468    -0.13536
-0.78242     -1.1238    -0.14431
-0.63904     -1.1704    -0.15326
-0.48891     -1.1846    -0.16221
-0.33931     -1.1656    -0.17116
-0.19752     -1.1143    -0.18011
-0.070388     -1.0332    -0.18905
0.035901    -0.92619      -0.198
0.1162    -0.79855    -0.20695
0.1666    -0.65643     -0.2159
0.18468    -0.50672    -0.22485
0.16954    -0.35668     -0.2338
0.12193    -0.21359    -0.24275
0.044157     -0.0844     -0.2517
-0.060015    0.024635    -0.26065
-0.18553     0.10822     -0.2696
-0.3263     0.16231    -0.27856
-0.47548     0.18429    -0.28751
-0.62582     0.17311    -0.29643
-0.76998     0.12933    -0.30523
-0.90096    0.054959     -0.3138
-1.0124   -0.046931    -0.32237
-1.0987    -0.17288    -0.33231
-1.1559    -0.31879    -0.34754
-1.1837    -0.47788     -0.3726
-0.068678    -0.11081  -0.0029539
-0.13733    -0.24685   -0.015442
-0.17619    -0.39439   -0.026672
-0.18279    -0.54611   -0.036694
-0.1562    -0.69497   -0.045957
-0.097662    -0.83404   -0.054906
-0.010084    -0.95678   -0.063805
0.10225     -1.0574   -0.072725
0.2339     -1.1309   -0.081665
0.37845     -1.1738   -0.090614
0.52889     -1.1841   -0.099564
0.67794     -1.1612    -0.10851
0.81836     -1.1062    -0.11746
0.94333     -1.0218    -0.12641
1.0468    -0.91211    -0.13536
1.1238    -0.78242    -0.14431
1.1704    -0.63904    -0.15326
1.1846    -0.48891    -0.16221
1.1656    -0.33931    -0.17116
1.1143    -0.19752    -0.18011
1.0332   -0.070388    -0.18905
0.92619    0.035901      -0.198
0.79855      0.1162    -0.20695
0.65643      0.1666     -0.2159
0.50672     0.18468    -0.22485
0.35668     0.16954     -0.2338
0.21359     0.12193    -0.24275
0.0844    0.044157     -0.2517
-0.024635   -0.060015    -0.26065
-0.10822    -0.18553     -0.2696
-0.16231     -0.3263    -0.27856
-0.18429    -0.47548    -0.28751
-0.17311    -0.62582    -0.29643
-0.12933    -0.76998    -0.30523
-0.054959    -0.90096     -0.3138
0.046931     -1.0124    -0.32237
0.17288     -1.0987    -0.33231
0.31879     -1.1559    -0.34754
0.47788     -1.1837     -0.3726
0  0  0
0  0  0
0  0  0
0  0  0
0  0  0
0  0  0
0  0  0
0  0  0
0  0  0
0.10245   -0.026301   -0.033774
0.21787   -0.040773   -0.049816
0.33798   -0.033872   -0.060723
0.45359  -0.0013697   -0.070144
0.55879    0.055367   -0.079086
0.64874     0.13371   -0.087969
0.71927     0.22984    -0.09688
0.76702      0.3391    -0.10582
0.7897     0.45616    -0.11477
0.7862     0.57536    -0.12372
0.7567     0.69091    -0.13267
0.70262     0.79719    -0.14162
0.62659     0.88906    -0.15056
0.53229     0.96206    -0.15951
0.4243      1.0126    -0.16846
0.30786      1.0384    -0.17741
0.18861       1.038    -0.18636
0.072334      1.0115    -0.19531
-0.035321      0.9602    -0.20426
-0.12914     0.88658    -0.21321
-0.20456     0.79421    -0.22216
-0.25794     0.68758    -0.23111
-0.28668     0.57184    -0.24005
-0.28939     0.45262      -0.249
-0.26594      0.3357    -0.25795
-0.21746     0.22674     -0.2669
-0.14631     0.13105    -0.27585
-0.055936    0.053243     -0.2848
0.049279  -0.0028902    -0.29375
0.16423    -0.03463     -0.3027
0.28334   -0.040441    -0.31165
0.40083   -0.020053     -0.3206
0.511    0.025512    -0.32952
0.6085    0.094015    -0.33839
0.68856     0.18223    -0.34718
0.74698     0.28637    -0.35612
0.77987     0.40245    -0.36609
0.78422     0.52617    -0.37926
0.76205     0.64981    -0.39682
0.098838    0.017854  -0.0063046
0.19417    0.052587   -0.016679
0.28726     0.10674   -0.027597
0.36711     0.17944   -0.037072
0.42877      0.2677   -0.046001
0.46934     0.36721   -0.054866
0.48704     0.47315   -0.063774
0.4811     0.58039   -0.072714
0.45183     0.68375   -0.081664
0.40065     0.77819   -0.090615
0.33004     0.85915   -0.099565
0.24342     0.92268    -0.10851
0.14499     0.96571    -0.11746
0.03953     0.98616    -0.12641
-0.067846     0.98302    -0.13536
-0.17193     0.95645    -0.14431
-0.26768     0.90775    -0.15326
-0.35044     0.83926    -0.16221
-0.41621     0.75433    -0.17116
-0.46178     0.65705    -0.18011
-0.48496     0.55216    -0.18905
-0.48462     0.44474      -0.198
-0.46077        0.34    -0.20695
-0.41457     0.24302     -0.2159
-0.34826      0.1585    -0.22485
-0.26507    0.090549     -0.2338
-0.16901    0.042457    -0.24275
-0.064756    0.016558     -0.2517
0.042639    0.014109    -0.26065
0.14797    0.035228     -0.2696
0.24612     0.07889    -0.27855
0.33234     0.14297    -0.28751
0.40244     0.22433    -0.29648
0.45305     0.31899    -0.30541
0.48166     0.42237    -0.31418
0.48656     0.52965    -0.32256
0.46647     0.63608     -0.3306
0.4205     0.73742    -0.34003
0.3515     0.82966    -0.35571
0.085417    0.068909    0.017542
0.16623     0.15329    0.015393
0.23138     0.25381   0.0060748
0.27408     0.36582  -0.0035412
0.29108     0.48415   -0.012759
0.28156     0.60308   -0.021753
0.24613     0.71694   -0.030688
0.18661     0.82027   -0.039622
0.10592     0.90806   -0.048565
0.0079669     0.97607   -0.057513
-0.1025       1.021   -0.066463
-0.22012      1.0406   -0.075412
-0.33919      1.0341   -0.084361
-0.45393      1.0016    -0.09331
-0.55879     0.94479    -0.10226
-0.64866     0.86641    -0.11121
-0.7192     0.77026    -0.12016
-0.76698       0.661    -0.12911
-0.78968     0.54393    -0.13806
-0.78621     0.42473      -0.147
-0.75673     0.30918    -0.15595
-0.70267     0.20289     -0.1649
-0.62666       0.111    -0.17385
-0.53237    0.037988     -0.1828
-0.42439   -0.012618    -0.19175
-0.30795   -0.038359     -0.2007
-0.1887   -0.037988    -0.20965
-0.072424   -0.011523     -0.2186
0.035241    0.039755    -0.22754
0.12907     0.11336    -0.23649
0.20452     0.20571    -0.24545
0.25792     0.31234    -0.25441
0.28671     0.42804    -0.26336
0.28949     0.54716    -0.27227
0.26606     0.66389    -0.28103
0.21722     0.77256    -0.28953
0.14434     0.86811    -0.29805
0.049164     0.94665    -0.30824
-0.065591      1.0075    -0.32593
0.026301     0.10245   -0.033774
0.040773     0.21787   -0.049816
0.033872     0.33798   -0.060723
0.0013697     0.45359   -0.070144
-0.055367     0.55879   -0.079086
-0.13371     0.64874   -0.087969
-0.22984     0.71927    -0.09688
-0.3391     0.76702    -0.10582
-0.45616      0.7897    -0.11477
-0.57536      0.7862    -0.12372
-0.69091      0.7567    -0.13267
-0.79719     0.70262    -0.14162
-0.88906     0.62659    -0.15056
-0.96206     0.53229    -0.15951
-1.0126      0.4243    -0.16846
-1.0384     0.30786    -0.17741
-1.038     0.18861    -0.18636
-1.0115    0.072334    -0.19531
-0.9602   -0.035321    -0.20426
-0.88658    -0.12914    -0.21321
-0.79421    -0.20456    -0.22216
-0.68758    -0.25794    -0.23111
-0.57184    -0.28668    -0.24005
-0.45262    -0.28939      -0.249
-0.3357    -0.26594    -0.25795
-0.22674    -0.21746     -0.2669
-0.13105    -0.14631    -0.27585
-0.053243   -0.055936     -0.2848
0.0028902    0.049279    -0.29375
0.03463     0.16423     -0.3027
0.040441     0.28334    -0.31165
0.020053     0.40083     -0.3206
-0.025512       0.511    -0.32952
-0.094015      0.6085    -0.33839
-0.18223     0.68856    -0.34718
-0.28637     0.74698    -0.35612
-0.40245     0.77987    -0.36609
-0.52617     0.78422    -0.37926
-0.64981     0.76205    -0.39682
-0.017854    0.098838  -0.0063046
-0.052587     0.19417   -0.016679
-0.10674     0.28726   -0.027597
-0.17944     0.36711   -0.037072
-0.2677     0.42877   -0.046001
-0.36721     0.46934   -0.054866
-0.47315     0.48704   -0.063774
-0.58039      0.4811   -0.072714
-0.68375     0.45183   -0.081664
-0.77819     0.40065   -0.090615
-0.85915     0.33004   -0.099565
-0.92268     0.24342    -0.10851
-0.96571     0.14499    -0.11746
-0.98616     0.03953    -0.12641
-0.98302   -0.067846    -0.13536
-0.95645    -0.17193    -0.14431
-0.90775    -0.26768    -0.15326
-0.83926    -0.35044    -0.16221
-0.75433    -0.41621    -0.17116
-0.65705    -0.46178    -0.18011
-0.55216    -0.48496    -0.18905
-0.44474    -0.48462      -0.198
-0.34    -0.46077    -0.20695
-0.24302    -0.41457     -0.2159
-0.1585    -0.34826    -0.22485
-0.090549    -0.26507     -0.2338
-0.042457    -0.16901    -0.24275
-0.016558   -0.064756     -0.2517
-0.014109    0.042639    -0.26065
-0.035228     0.14797     -0.2696
-0.07889     0.24612    -0.27855
-0.14297     0.33234    -0.28751
-0.22433     0.40244    -0.29648
-0.31899     0.45305    -0.30541
-0.42237     0.48166    -0.31418
-0.52965     0.48656    -0.32256
-0.63608     0.46647     -0.3306
-0.73742      0.4205    -0.34003
-0.82966      0.3515    -0.35571
-0.068909    0.085417    0.017542
-0.15329     0.16623    0.015393
-0.25381     0.23138   0.0060748
-0.36582     0.27408  -0.0035412
-0.48415     0.29108   -0.012759
-0.60308     0.28156   -0.021753
-0.71694     0.24613   -0.030688
-0.82027     0.18661   -0.039622
-0.90806     0.10592   -0.048565
-0.97607   0.0079669   -0.057513
-1.021     -0.1025   -0.066463
-1.0406    -0.22012   -0.075412
-1.0341    -0.33919   -0.084361
-1.0016    -0.45393    -0.09331
-0.94479    -0.55879    -0.10226
-0.86641    -0.64866    -0.11121
-0.77026     -0.7192    -0.12016
-0.661    -0.76698    -0.12911
-0.54393    -0.78968    -0.13806
-0.42473    -0.78621      -0.147
-0.30918    -0.75673    -0.15595
-0.20289    -0.70267     -0.1649
-0.111    -0.62666    -0.17385
-0.037988    -0.53237     -0.1828
0.012618    -0.42439    -0.19175
0.038359    -0.30795     -0.2007
0.037988     -0.1887    -0.20965
0.011523   -0.072424     -0.2186
-0.039755    0.035241    -0.22754
-0.11336     0.12907    -0.23649
-0.20571     0.20452    -0.24545
-0.31234     0.25792    -0.25441
-0.42804     0.28671    -0.26336
-0.54716     0.28949    -0.27227
-0.66389     0.26606    -0.28103
-0.77256     0.21722    -0.28953
-0.86811     0.14434    -0.29805
-0.94665    0.049164    -0.30824
-1.0075   -0.065591    -0.32593
-0.10245    0.026301   -0.033774
-0.21787    0.040773   -0.049816
-0.33798    0.033872   -0.060723
-0.45359   0.0013697   -0.070144
-0.55879   -0.055367   -0.079086
-0.64874    -0.13371   -0.087969
-0.71927    -0.22984    -0.09688
-0.76702     -0.3391    -0.10582
-0.7897    -0.45616    -0.11477
-0.7862    -0.57536    -0.12372
-0.7567    -0.69091    -0.13267
-0.70262    -0.79719    -0.14162
-0.62659    -0.88906    -0.15056
-0.53229    -0.96206    -0.15951
-0.4243     -1.0126    -0.16846
-0.30786     -1.0384    -0.17741
-0.18861      -1.038    -0.18636
-0.072334     -1.0115    -0.19531
0.035321     -0.9602    -0.20426
0.12914    -0.88658    -0.21321
0.20456    -0.79421    -0.22216
0.25794    -0.68758    -0.23111
0.28668    -0.57184    -0.24005
0.28939    -0.45262      -0.249
0.26594     -0.3357    -0.25795
0.21746    -0.22674     -0.2669
0.14631    -0.13105    -0.27585
0.055936   -0.053243     -0.2848
-0.049279   0.0028902    -0.29375
-0.16423     0.03463     -0.3027
-0.28334    0.040441    -0.31165
-0.40083    0.020053     -0.3206
-0.511   -0.025512    -0.32952
-0.6085   -0.094015    -0.33839
-0.68856    -0.18223    -0.34718
-0.74698    -0.28637    -0.35612
-0.77987    -0.40245    -0.36609
-0.78422    -0.52617    -0.37926
-0.76205    -0.64981    -0.39682
-0.098838   -0.017854  -0.0063046
-0.19417   -0.052587   -0.016679
-0.28726    -0.10674   -0.027597
-0.36711    -0.17944   -0.037072
-0.42877     -0.2677   -0.046001
-0.46934    -0.36721   -0.054866
-0.48704    -0.47315   -0.063774
-0.4811    -0.58039   -0.072714
-0.45183    -0.68375   -0.081664
-0.40065    -0.77819   -0.090615
-0.33004    -0.85915   -0.099565
-0.24342    -0.92268    -0.10851
-0.14499    -0.96571    -0.11746
-0.03953    -0.98616    -0.12641
0.067846    -0.98302    -0.13536
0.17193    -0.95645    -0.14431
0.26768    -0.90775    -0.15326
0.35044    -0.83926    -0.16221
0.41621    -0.75433    -0.17116
0.46178    -0.65705    -0.18011
0.48496    -0.55216    -0.18905
0.48462    -0.44474      -0.198
0.46077       -0.34    -0.20695
0.41457    -0.24302     -0.2159
0.34826     -0.1585    -0.22485
0.26507   -0.090549     -0.2338
0.16901   -0.042457    -0.24275
0.064756   -0.016558     -0.2517
-0.042639   -0.014109    -0.26065
-0.14797   -0.035228     -0.2696
-0.24612    -0.07889    -0.27855
-0.33234    -0.14297    -0.28751
-0.40244    -0.22433    -0.29648
-0.45305    -0.31899    -0.30541
-0.48166    -0.42237    -0.31418
-0.48656    -0.52965    -0.32256
-0.46647    -0.63608     -0.3306
-0.4205    -0.73742    -0.34003
-0.3515    -0.82966    -0.35571
-0.085417   -0.068909    0.017542
-0.16623    -0.15329    0.015393
-0.23138    -0.25381   0.0060748
-0.27408    -0.36582  -0.0035412
-0.29108    -0.48415   -0.012759
-0.28156    -0.60308   -0.021753
-0.24613    -0.71694   -0.030688
-0.18661    -0.82027   -0.039622
-0.10592    -0.90806   -0.048565
-0.0079669    -0.97607   -0.057513
0.1025      -1.021   -0.066463
0.22012     -1.0406   -0.075412
0.33919     -1.0341   -0.084361
0.45393     -1.0016    -0.09331
0.55879    -0.94479    -0.10226
0.64866    -0.86641    -0.11121
0.7192    -0.77026    -0.12016
0.76698      -0.661    -0.12911
0.78968    -0.54393    -0.13806
0.78621    -0.42473      -0.147
0.75673    -0.30918    -0.15595
0.70267    -0.20289     -0.1649
0.62666      -0.111    -0.17385
0.53237   -0.037988     -0.1828
0.42439    0.012618    -0.19175
0.30795    0.038359     -0.2007
0.1887    0.037988    -0.20965
0.072424    0.011523     -0.2186
-0.035241   -0.039755    -0.22754
-0.12907    -0.11336    -0.23649
-0.20452    -0.20571    -0.24545
-0.25792    -0.31234    -0.25441
-0.28671    -0.42804    -0.26336
-0.28949    -0.54716    -0.27227
-0.26606    -0.66389    -0.28103
-0.21722    -0.77256    -0.28953
-0.14434    -0.86811    -0.29805
-0.049164    -0.94665    -0.30824
0.065591     -1.0075    -0.32593
-0.026301    -0.10245   -0.033774
-0.040773    -0.21787   -0.049816
-0.033872    -0.33798   -0.060723
-0.0013697    -0.45359   -0.070144
0.055367    -0.55879   -0.079086
0.13371    -0.64874   -0.087969
0.22984    -0.71927    -0.09688
0.3391    -0.76702    -0.10582
0.45616     -0.7897    -0.11477
0.57536     -0.7862    -0.12372
0.69091     -0.7567    -0.13267
0.79719    -0.70262    -0.14162
0.88906    -0.62659    -0.15056
0.96206    -0.53229    -0.15951
1.0126     -0.4243    -0.16846
1.0384    -0.30786    -0.17741
1.038    -0.18861    -0.18636
1.0115   -0.072334    -0.19531
0.9602    0.035321    -0.20426
0.88658     0.12914    -0.21321
0.79421     0.20456    -0.22216
0.68758     0.25794    -0.23111
0.57184     0.28668    -0.24005
0.45262     0.28939      -0.249
0.3357     0.26594    -0.25795
0.22674     0.21746     -0.2669
0.13105     0.14631    -0.27585
0.053243    0.055936     -0.2848
-0.0028902   -0.049279    -0.29375
-0.03463    -0.16423     -0.3027
-0.040441    -0.28334    -0.31165
-0.020053    -0.40083     -0.3206
0.025512      -0.511    -0.32952
0.094015     -0.6085    -0.33839
0.18223    -0.68856    -0.34718
0.28637    -0.74698    -0.35612
0.40245    -0.77987    -0.36609
0.52617    -0.78422    -0.37926
0.64981    -0.76205    -0.39682
0.017854   -0.098838  -0.0063046
0.052587    -0.19417   -0.016679
0.10674    -0.28726   -0.027597
0.17944    -0.36711   -0.037072
0.2677    -0.42877   -0.046001
0.36721    -0.46934   -0.054866
0.47315    -0.48704   -0.063774
0.58039     -0.4811   -0.072714
0.68375    -0.45183   -0.081664
0.77819    -0.40065   -0.090615
0.85915    -0.33004   -0.099565
0.92268    -0.24342    -0.10851
0.96571    -0.14499    -0.11746
0.98616    -0.03953    -0.12641
0.98302    0.067846    -0.13536
0.95645     0.17193    -0.14431
0.90775     0.26768    -0.15326
0.83926     0.35044    -0.16221
0.75433     0.41621    -0.17116
0.65705     0.46178    -0.18011
0.55216     0.48496    -0.18905
0.44474     0.48462      -0.198
0.34     0.46077    -0.20695
0.24302     0.41457     -0.2159
0.1585     0.34826    -0.22485
0.090549     0.26507     -0.2338
0.042457     0.16901    -0.24275
0.016558    0.064756     -0.2517
0.014109   -0.042639    -0.26065
0.035228    -0.14797     -0.2696
0.07889    -0.24612    -0.27855
0.14297    -0.33234    -0.28751
0.22433    -0.40244    -0.29648
0.31899    -0.45305    -0.30541
0.42237    -0.48166    -0.31418
0.52965    -0.48656    -0.32256
0.63608    -0.46647     -0.3306
0.73742     -0.4205    -0.34003
0.82966     -0.3515    -0.35571
0.068909   -0.085417    0.017542
0.15329    -0.16623    0.015393
0.25381    -0.23138   0.0060748
0.36582    -0.27408  -0.0035412
0.48415    -0.29108   -0.012759
0.60308    -0.28156   -0.021753
0.71694    -0.24613   -0.030688