# vtk DataFile Version 3.0
VTK Output
ASCII
DATASET UNSTRUCTURED_GRID

POINTS 1025 float
-0.5        -0.5           0
0.5        -0.5           0
0.5         0.5           0
-0.5         0.5           0
-0.5         -0.5           10
0.5         -0.5           10
0.5          0.5           10
-0.5          0.5           10
-0.25        -0.5           0
-1.3751e-12        -0.5           0
0.25        -0.5           0
0.5       -0.25           0
0.5 -1.3751e-12           0
0.5        0.25           0
0.25         0.5           0
1.3751e-12         0.5           0
-0.25         0.5           0
-0.5        0.25           0
-0.5  1.3751e-12           0
-0.5       -0.25           0
-0.25         -0.5           10
-1.37512e-12         -0.5           10
0.25         -0.5           10
0.5        -0.25           10
0.5 -1.37512e-12           10
0.5         0.25           10
0.25          0.5           10
1.37512e-12          0.5           10
-0.25          0.5           10
-0.5         0.25           10
-0.5  1.37512e-12           10
-0.5        -0.25           10
-0.5        -0.5        0.25
-0.5        -0.5         0.5
-0.5        -0.5        0.75
-0.5        -0.5           1
-0.5        -0.5        1.25
-0.5        -0.5         1.5
-0.5        -0.5        1.75
-0.5        -0.5           2
-0.5        -0.5        2.25
-0.5        -0.5         2.5
-0.5        -0.5        2.75
-0.5        -0.5           3
-0.5        -0.5        3.25
-0.5        -0.5         3.5
-0.5        -0.5        3.75
-0.5        -0.5           4
-0.5        -0.5        4.25
-0.5        -0.5         4.5
-0.5        -0.5        4.75
-0.5        -0.5           5
-0.5        -0.5        5.25
-0.5        -0.5         5.5
-0.5        -0.5        5.75
-0.5        -0.5           6
-0.5        -0.5        6.25
-0.5        -0.5         6.5
-0.5        -0.5        6.75
-0.5        -0.5           7
-0.5        -0.5        7.25
-0.5        -0.5         7.5
-0.5        -0.5        7.75
-0.5        -0.5           8
-0.5        -0.5        8.25
-0.5        -0.5         8.5
-0.5        -0.5        8.75
-0.5        -0.5           9
-0.5        -0.5        9.25
-0.5        -0.5         9.5
-0.5        -0.5        9.75
0.5        -0.5        0.25
0.5        -0.5         0.5
0.5        -0.5        0.75
0.5        -0.5           1
0.5        -0.5        1.25
0.5        -0.5         1.5
0.5        -0.5        1.75
0.5        -0.5           2
0.5        -0.5        2.25
0.5        -0.5         2.5
0.5        -0.5        2.75
0.5        -0.5           3
0.5        -0.5        3.25
0.5        -0.5         3.5
0.5        -0.5        3.75
0.5        -0.5           4
0.5        -0.5        4.25
0.5        -0.5         4.5
0.5        -0.5        4.75
0.5        -0.5           5
0.5        -0.5        5.25
0.5        -0.5         5.5
0.5        -0.5        5.75
0.5        -0.5           6
0.5        -0.5        6.25
0.5        -0.5         6.5
0.5        -0.5        6.75
0.5        -0.5           7
0.5        -0.5        7.25
0.5        -0.5         7.5
0.5        -0.5        7.75
0.5        -0.5           8
0.5        -0.5        8.25
0.5        -0.5         8.5
0.5        -0.5        8.75
0.5        -0.5           9
0.5        -0.5        9.25
0.5        -0.5         9.5
0.5        -0.5        9.75
0.5         0.5        0.25
0.5         0.5         0.5
0.5         0.5        0.75
0.5         0.5           1
0.5         0.5        1.25
0.5         0.5         1.5
0.5         0.5        1.75
0.5         0.5           2
0.5         0.5        2.25
0.5         0.5         2.5
0.5         0.5        2.75
0.5         0.5           3
0.5         0.5        3.25
0.5         0.5         3.5
0.5         0.5        3.75
0.5         0.5           4
0.5         0.5        4.25
0.5         0.5         4.5
0.5         0.5        4.75
0.5         0.5           5
0.5         0.5        5.25
0.5         0.5         5.5
0.5         0.5        5.75
0.5         0.5           6
0.5         0.5        6.25
0.5         0.5         6.5
0.5         0.5        6.75
0.5         0.5           7
0.5         0.5        7.25
0.5         0.5         7.5
0.5         0.5        7.75
0.5         0.5           8
0.5         0.5        8.25
0.5         0.5         8.5
0.5         0.5        8.75
0.5         0.5           9
0.5         0.5        9.25
0.5         0.5         9.5
0.5         0.5        9.75
-0.5         0.5        0.25
-0.5         0.5         0.5
-0.5         0.5        0.75
-0.5         0.5           1
-0.5         0.5        1.25
-0.5         0.5         1.5
-0.5         0.5        1.75
-0.5         0.5           2
-0.5         0.5        2.25
-0.5         0.5         2.5
-0.5         0.5        2.75
-0.5         0.5           3
-0.5         0.5        3.25
-0.5         0.5         3.5
-0.5         0.5        3.75
-0.5         0.5           4
-0.5         0.5        4.25
-0.5         0.5         4.5
-0.5         0.5        4.75
-0.5         0.5           5
-0.5         0.5        5.25
-0.5         0.5         5.5
-0.5         0.5        5.75
-0.5         0.5           6
-0.5         0.5        6.25
-0.5         0.5         6.5
-0.5         0.5        6.75
-0.5         0.5           7
-0.5         0.5        7.25
-0.5         0.5         7.5
-0.5         0.5        7.75
-0.5         0.5           8
-0.5         0.5        8.25
-0.5         0.5         8.5
-0.5         0.5        8.75
-0.5         0.5           9
-0.5         0.5        9.25
-0.5         0.5         9.5
-0.5         0.5        9.75
-0.25       -0.25           0
-0.25  6.8756e-13           0
-0.25        0.25           0
-6.8756e-13       -0.25           0
-3.7821e-24           0           0
6.8756e-13        0.25           0
0.25       -0.25           0
0.25 -6.8756e-13           0
0.25        0.25           0
-0.25        -0.5        0.25
-0.25        -0.5         0.5
-0.25        -0.5        0.75
-0.25        -0.5           1
-0.25        -0.5        1.25
-0.25        -0.5         1.5
-0.25        -0.5        1.75
-0.25        -0.5           2
-0.25        -0.5        2.25
-0.25        -0.5         2.5
-0.25        -0.5        2.75
-0.25        -0.5           3
-0.25        -0.5        3.25
-0.25        -0.5         3.5
-0.25        -0.5        3.75
-0.25        -0.5           4
-0.25        -0.5        4.25
-0.25        -0.5         4.5
-0.25        -0.5        4.75
-0.25        -0.5           5
-0.25        -0.5        5.25
-0.25        -0.5         5.5
-0.25        -0.5        5.75
-0.25        -0.5           6
-0.25        -0.5        6.25
-0.25        -0.5         6.5
-0.25        -0.5        6.75
-0.25        -0.5           7
-0.25        -0.5        7.25
-0.25        -0.5         7.5
-0.25        -0.5        7.75
-0.25        -0.5           8
-0.25        -0.5        8.25
-0.25        -0.5         8.5
-0.25        -0.5        8.75
-0.25        -0.5           9
-0.25        -0.5        9.25
-0.25        -0.5         9.5
-0.25        -0.5        9.75
-1.3751e-12        -0.5        0.25
-1.3751e-12        -0.5         0.5
-1.3751e-12        -0.5        0.75
-1.3751e-12        -0.5           1
-1.3751e-12        -0.5        1.25
-1.3751e-12        -0.5         1.5
-1.3751e-12        -0.5        1.75
-1.3751e-12        -0.5           2
-1.3751e-12        -0.5        2.25
-1.3751e-12        -0.5         2.5
-1.3751e-12        -0.5        2.75
-1.3751e-12        -0.5           3
-1.3751e-12        -0.5        3.25
-1.3751e-12        -0.5         3.5
-1.3751e-12        -0.5        3.75
-1.3751e-12        -0.5           4
-1.3751e-12        -0.5        4.25
-1.3751e-12        -0.5         4.5
-1.3751e-12        -0.5        4.75
-1.3751e-12        -0.5           5
-1.3751e-12        -0.5        5.25
-1.3751e-12        -0.5         5.5
-1.3751e-12        -0.5        5.75
-1.3751e-12        -0.5           6
-1.3751e-12        -0.5        6.25
-1.3751e-12        -0.5         6.5
-1.3751e-12        -0.5        6.75
-1.3751e-12        -0.5           7
-1.3751e-12        -0.5        7.25
-1.3751e-12        -0.5         7.5
-1.3751e-12        -0.5        7.75
-1.3751e-12        -0.5           8
-1.3751e-12        -0.5        8.25
-1.3751e-12        -0.5         8.5
-1.3751e-12        -0.5        8.75
-1.3751e-12        -0.5           9
-1.3751e-12        -0.5        9.25
-1.3751e-12        -0.5         9.5
-1.3751e-12        -0.5        9.75
0.25        -0.5        0.25
0.25        -0.5         0.5
0.25        -0.5        0.75
0.25        -0.5           1
0.25        -0.5        1.25
0.25        -0.5         1.5
0.25        -0.5        1.75
0.25        -0.5           2
0.25        -0.5        2.25
0.25        -0.5         2.5
0.25        -0.5        2.75
0.25        -0.5           3
0.25        -0.5        3.25
0.25        -0.5         3.5
0.25        -0.5        3.75
0.25        -0.5           4
0.25        -0.5        4.25
0.25        -0.5         4.5
0.25        -0.5        4.75
0.25        -0.5           5
0.25        -0.5        5.25
0.25        -0.5         5.5
0.25        -0.5        5.75
0.25        -0.5           6
0.25        -0.5        6.25
0.25        -0.5         6.5
0.25        -0.5        6.75
0.25        -0.5           7
0.25        -0.5        7.25
0.25        -0.5         7.5
0.25        -0.5        7.75
0.25        -0.5           8
0.25        -0.5        8.25
0.25        -0.5         8.5
0.25        -0.5        8.75
0.25        -0.5           9
0.25        -0.5        9.25
0.25        -0.5         9.5
0.25        -0.5        9.75
0.5       -0.25        0.25
0.5       -0.25         0.5
0.5       -0.25        0.75
0.5       -0.25           1
0.5       -0.25        1.25
0.5       -0.25         1.5
0.5       -0.25        1.75
0.5       -0.25           2
0.5       -0.25        2.25
0.5       -0.25         2.5
0.5       -0.25        2.75
0.5       -0.25           3
0.5       -0.25        3.25
0.5       -0.25         3.5
0.5       -0.25        3.75
0.5       -0.25           4
0.5       -0.25        4.25
[...]
POINT_DATA 1025
VECTORS displacement double
0  0  0
0  0  0
0  0  0
0  0  0
0.10715   -0.087938 -0.00021093
0.087938     0.10715 -0.00021093
-0.10715    0.087938 -0.00021093
-0.087938    -0.10715 -0.00021093
0  0  0
0  0  0
0  0  0
0  0  0
0  0  0
0  0  0
0  0  0
0  0  0
0  0  0
0  0  0
0  0  0
0  0  0
0.10235   -0.039165 -0.00093963
0.097545   0.0096074 -0.00019879
0.092741     0.05838  0.00053593
0.039165     0.10235 -0.00093963
-0.0096074    0.097545 -0.00019879
-0.05838    0.092741  0.00053593
-0.10235    0.039165 -0.00093963
-0.097545  -0.0096074 -0.00019879
-0.092741    -0.05838  0.00053593
-0.039165    -0.10235 -0.00093963
0.0096074   -0.097545 -0.00019879
0.05838   -0.092741  0.00053593
0.0021731  -0.0021505  -2.009e-06
0.0047364  -0.0046776 -9.2788e-06
0.0072453  -0.0071269 -1.4755e-05
0.0097463   -0.009545 -1.9776e-05
0.012258    -0.01195  -2.463e-05
0.014782   -0.014342 -2.9402e-05
0.017317   -0.016723 -3.4156e-05
0.019864    -0.01909 -3.8912e-05
0.022423   -0.021445  -4.367e-05
0.024994   -0.023788  -4.843e-05
0.027575   -0.026118  -5.319e-05
0.030169   -0.028435  -5.795e-05
0.032773   -0.030739 -6.2711e-05
0.035389   -0.033031 -6.7471e-05
0.038017   -0.035309 -7.2231e-05
0.040655   -0.037575 -7.6991e-05
0.043304   -0.039828 -8.1751e-05
0.045965   -0.042067 -8.6511e-05
0.048636   -0.044294 -9.1271e-05
0.051319   -0.046507 -9.6032e-05
0.054012   -0.048707 -0.00010079
0.056716   -0.050894 -0.00010555
0.059431   -0.053068 -0.00011031
0.062156   -0.055228 -0.00011507
0.064892   -0.057374 -0.00011983
0.067639   -0.059508 -0.00012459
0.070396   -0.061627 -0.00012935
0.073163   -0.063733 -0.00013411
0.075941   -0.065826 -0.00013887
0.078729   -0.067905 -0.00014363
0.081527    -0.06997 -0.00014839
0.084336   -0.072021 -0.00015315
0.087154   -0.074058  -0.0001579
0.089982   -0.076082 -0.00016263
0.092821   -0.078091 -0.00016733
0.095669   -0.080087 -0.00017206
0.098527   -0.082068 -0.00017723
0.10139   -0.084035 -0.00018411
0.10427    -0.08599 -0.00019468
0.0021505   0.0021731  -2.009e-06
0.0046776   0.0047364 -9.2788e-06
0.0071269   0.0072453 -1.4755e-05
0.009545   0.0097463 -1.9776e-05
0.01195    0.012258  -2.463e-05
0.014342    0.014782 -2.9402e-05
0.016723    0.017317 -3.4156e-05
0.01909    0.019864 -3.8912e-05
0.021445    0.022423  -4.367e-05
0.023788    0.024994  -4.843e-05
0.026118    0.027575  -5.319e-05
0.028435    0.030169  -5.795e-05
0.030739    0.032773 -6.2711e-05
0.033031    0.035389 -6.7471e-05
0.035309    0.038017 -7.2231e-05
0.037575    0.040655 -7.6991e-05
0.039828    0.043304 -8.1751e-05
0.042067    0.045965 -8.6511e-05
0.044294    0.048636 -9.1271e-05
0.046507    0.051319 -9.6032e-05
0.048707    0.054012 -0.00010079
0.050894    0.056716 -0.00010555
0.053068    0.059431 -0.00011031
0.055228    0.062156 -0.00011507
0.057374    0.064892 -0.00011983
0.059508    0.067639 -0.00012459
0.061627    0.070396 -0.00012935
0.063733    0.073163 -0.00013411
0.065826    0.075941 -0.00013887
0.067905    0.078729 -0.00014363
0.06997    0.081527 -0.00014839
0.072021    0.084336 -0.00015315
0.074058    0.087154  -0.0001579
0.076082    0.089982 -0.00016263
0.078091    0.092821 -0.00016733
0.080087    0.095669 -0.00017206
0.082068    0.098527 -0.00017723
0.084035     0.10139 -0.00018411
0.08599     0.10427 -0.00019468
-0.0021731   0.0021505  -2.009e-06
-0.0047364   0.0046776 -9.2788e-06
-0.0072453   0.0071269 -1.4755e-05
-0.0097463    0.009545 -1.9776e-05
-0.012258     0.01195  -2.463e-05
-0.014782    0.014342 -2.9402e-05
-0.017317    0.016723 -3.4156e-05
-0.019864     0.01909 -3.8912e-05
-0.022423    0.021445  -4.367e-05
-0.024994    0.023788  -4.843e-05
-0.027575    0.026118  -5.319e-05
-0.030169    0.028435  -5.795e-05
-0.032773    0.030739 -6.2711e-05
-0.035389    0.033031 -6.7471e-05
-0.038017    0.035309 -7.2231e-05
-0.040655    0.037575 -7.6991e-05
-0.043304    0.039828 -8.1751e-05
-0.045965    0.042067 -8.6511e-05
-0.048636    0.044294 -9.1271e-05
-0.051319    0.046507 -9.6032e-05
-0.054012    0.048707 -0.00010079
-0.056716    0.050894 -0.00010555
-0.059431    0.053068 -0.00011031
-0.062156    0.055228 -0.00011507
-0.064892    0.057374 -0.00011983
-0.067639    0.059508 -0.00012459
-0.070396    0.061627 -0.00012935
-0.073163    0.063733 -0.00013411
-0.075941    0.065826 -0.00013887
-0.078729    0.067905 -0.00014363
-0.081527     0.06997 -0.00014839
-0.084336    0.072021 -0.00015315
-0.087154    0.074058  -0.0001579
-0.089982    0.076082 -0.00016263
-0.092821    0.078091 -0.00016733
-0.095669    0.080087 -0.00017206
-0.098527    0.082068 -0.00017723
-0.10139    0.084035 -0.00018411
-0.10427     0.08599 -0.00019468
-0.0021505  -0.0021731  -2.009e-06
-0.0046776  -0.0047364 -9.2788e-06
-0.0071269  -0.0072453 -1.4755e-05
-0.009545  -0.0097463 -1.9776e-05
-0.01195   -0.012258  -2.463e-05
-0.014342   -0.014782 -2.9402e-05
-0.016723   -0.017317 -3.4156e-05
-0.01909   -0.019864 -3.8912e-05
-0.021445   -0.022423  -4.367e-05
-0.023788   -0.024994  -4.843e-05
-0.026118   -0.027575  -5.319e-05
-0.028435   -0.030169  -5.795e-05
-0.030739   -0.032773 -6.2711e-05
-0.033031   -0.035389 -6.7471e-05
-0.035309   -0.038017 -7.2231e-05
-0.037575   -0.040655 -7.6991e-05
-0.039828   -0.043304 -8.1751e-05
-0.042067   -0.045965 -8.6511e-05
-0.044294   -0.048636 -9.1271e-05
-0.046507   -0.051319 -9.6032e-05
-0.048707   -0.054012 -0.00010079
-0.050894   -0.056716 -0.00010555
-0.053068   -0.059431 -0.00011031
-0.055228   -0.062156 -0.00011507
-0.057374   -0.064892 -0.00011983
-0.059508   -0.067639 -0.00012459
-0.061627   -0.070396 -0.00012935
-0.063733   -0.073163 -0.00013411
-0.065826   -0.075941 -0.00013887
-0.067905   -0.078729 -0.00014363
-0.06997   -0.081527 -0.00014839
-0.072021   -0.084336 -0.00015315
-0.074058   -0.087154  -0.0001579
-0.076082   -0.089982 -0.00016263
-0.078091   -0.092821 -0.00016733
-0.080087   -0.095669 -0.00017206
-0.082068   -0.098527 -0.00017723
-0.084035    -0.10139 -0.00018411
-0.08599    -0.10427 -0.00019468
0  0  0
0  0  0
0  0  0
0  0  0
0  0  0
0  0  0
0  0  0
0  0  0
0  0  0
0.002306  -0.0011371 -0.00060072
0.0047389  -0.0023271 -0.00074755
0.0072141  -0.0035333 -0.00075526
0.0096945  -0.0047212   -0.000758
0.01218  -0.0058971 -0.00076236
0.014671  -0.0070607 -0.00076712
0.017167  -0.0082119 -0.00077189
0.01967  -0.0093509 -0.00077665
0.022178   -0.010478 -0.00078141
0.024691   -0.011592 -0.00078617
0.02721   -0.012694 -0.00079093
0.029734   -0.013783 -0.00079569
0.032264    -0.01486 -0.00080045
0.034799   -0.015925 -0.00080521
0.037339   -0.016977 -0.00080997
0.039884   -0.018017 -0.00081473
0.042434   -0.019044 -0.00081949
0.044989   -0.020059 -0.00082425
0.04755   -0.021061 -0.00082901
0.050115    -0.02205 -0.00083377
0.052685   -0.023027 -0.00083853
0.055259   -0.023991 -0.00084329
0.057839   -0.024942 -0.00084805
0.060423   -0.025881 -0.00085281
0.063012   -0.026807 -0.00085757
0.065605    -0.02772 -0.00086233
0.068203   -0.028621 -0.00086709
0.070805   -0.029509 -0.00087185
0.073411   -0.030384 -0.00087661
0.076022   -0.031246 -0.00088137
0.078637   -0.032095 -0.00088613
0.081256   -0.032931 -0.00089089
0.083879   -0.033755 -0.00089565
0.086506   -0.034565  -0.0009004
0.089137   -0.035363 -0.00090513
0.091772   -0.036147 -0.00090986
0.094411   -0.036919 -0.00091473
0.097054   -0.037677 -0.00092026
0.0997   -0.038423 -0.00092784
0.0024253  1.0193e-05 -4.2059e-06
0.0047391  2.8726e-05 -9.5176e-06
0.0071851  5.8145e-05 -1.5017e-05
0.0096449   9.942e-05 -1.9914e-05
0.012104  0.00015284 -2.4653e-05
0.014562  0.00021839 -2.9396e-05
0.01702  0.00029605  -3.415e-05
0.019477   0.0003858  -3.891e-05
0.021934  0.00048764  -4.367e-05
0.024391  0.00060156  -4.843e-05
0.026847  0.00072756  -5.319e-05
0.029302  0.00086563  -5.795e-05
0.031756   0.0010158 -6.2711e-05
0.03421    0.001178 -6.7471e-05
0.036663   0.0013523 -7.2231e-05
0.039115   0.0015386 -7.6991e-05
0.041566    0.001737 -8.1751e-05
0.044016   0.0019475 -8.6511e-05
0.046465     0.00217 -9.1271e-05
0.048913   0.0024046 -9.6032e-05
0.05136   0.0026511 -0.00010079
0.053805   0.0029098 -0.00010555
0.056249   0.0031804 -0.00011031
0.058692   0.0034631 -0.00011507
0.061134   0.0037577 -0.00011983
0.063573   0.0040644 -0.00012459
0.066012   0.0043831 -0.00012935
0.068449   0.0047137 -0.00013411
0.070884   0.0050563 -0.00013887
0.073317    0.005411 -0.00014363
0.075749   0.0057775 -0.00014839
0.078178   0.0061561 -0.00015315
0.080606   0.0065465 -0.00015792
0.083032   0.0069489 -0.00016267
0.085456   0.0073633 -0.00016741
0.087878   0.0077897 -0.00017208
0.090298   0.0082283 -0.00017663
0.092715   0.0086793  -0.0001813
0.095131   0.0091414  -0.0001878
0.0022968   0.0011608  0.00059102
0.0047118   0.0023883  0.00072812
0.007157   0.0036533   0.0007254
0.0095959    0.004924  0.00071831
0.012028   0.0062068  0.00071309
0.014453   0.0075014  0.00070833
0.016872    0.008808  0.00070358
0.019285    0.010127  0.00069883
0.021691    0.011457  0.00069407
0.02409    0.012799  0.00068931
0.026483    0.014153  0.00068455
0.028869    0.015519  0.00067979
0.031249    0.016896  0.00067503
0.033621    0.018285  0.00067026
0.035987    0.019686   0.0006655
0.038346    0.021098  0.00066074
0.040698    0.022522  0.00065598
0.043043    0.023958  0.00065122
0.04538    0.025405  0.00064646
0.047711    0.026863   0.0006417
0.050034    0.028333  0.00063694
0.052351    0.029814  0.00063218
0.054659    0.031307  0.00062742
0.056961    0.032811  0.00062266
0.059255    0.034327   0.0006179
0.061541    0.035853  0.00061314
0.06382    0.037391  0.00060838
0.066092     0.03894  0.00060362
0.068356      0.0405  0.00059886
0.070612    0.042072   0.0005941
0.07286    0.043654  0.00058934
0.075101    0.045247  0.00058458
0.077333    0.046852  0.00057982
0.079558    0.048467  0.00057508
0.081775    0.050093  0.00057034
0.083983    0.051731  0.00056561
0.086184    0.053379  0.00056076
0.088375    0.055038  0.00055525
0.09056    0.056708  0.00054769
0.0011371    0.002306 -0.00060072
0.0023271   0.0047389 -0.00074755
0.0035333   0.0072141 -0.00075526
0.0047212   0.0096945   -0.000758
0.0058971     0.01218 -0.00076236
0.0070607    0.014671 -0.00076712
0.0082119    0.017167 -0.00077189
0.0093509     0.01967 -0.00077665
0.010478    0.022178 -0.00078141
0.011592    0.024691 -0.00078617
0.012694     0.02721 -0.00079093
0.013783    0.029734 -0.00079569
0.01486    0.032264 -0.00080045
0.015925    0.034799 -0.00080521
0.016977    0.037339 -0.00080997
0.018017    0.039884 -0.00081473
0.019044    0.042434 -0.00081949
0.020059    0.044989 -0.00082425
0.021061     0.04755 -0.00082901
0.02205    0.050115 -0.00083377
0.023027    0.052685 -0.00083853
0.023991    0.055259 -0.00084329
0.024942    0.057839 -0.00084805
0.025881    0.060423 -0.00085281
0.026807    0.063012 -0.00085757
0.02772    0.065605 -0.00086233
0.028621    0.068203 -0.00086709
0.029509    0.070805 -0.00087185
0.030384    0.073411 -0.00087661
0.031246    0.076022 -0.00088137
0.032095    0.078637 -0.00088613
0.032931    0.081256 -0.00089089
0.033755    0.083879 -0.00089565
0.034565    0.086506  -0.0009004
0.035363    0.089137 -0.00090513
0.036147    0.091772 -0.00090986
0.036919    0.094411 -0.00091473
0.037677    0.097054 -0.00092026
0.038423      0.0997 -0.00092784
-1.0193e-05   0.0024253 -4.2059e-06
-2.8726e-05   0.0047391 -9.5176e-06
-5.8145e-05   0.0071851 -1.5017e-05
-9.942e-05   0.0096449 -1.9914e-05
-0.00015284    0.012104 -2.4653e-05
-0.00021839    0.014562 -2.9396e-05
-0.00029605     0.01702  -3.415e-05
-0.0003858    0.019477  -3.891e-05
-0.00048764    0.021934  -4.367e-05
-0.00060156    0.024391  -4.843e-05
-0.00072756    0.026847  -5.319e-05
-0.00086563    0.029302  -5.795e-05
-0.0010158    0.031756 -6.2711e-05
-0.001178     0.03421 -6.7471e-05
-0.0013523    0.036663 -7.2231e-05
-0.0015386    0.039115 -7.6991e-05
-0.001737    0.041566 -8.1751e-05
-0.0019475    0.044016 -8.6511e-05
-0.00217    0.046465 -9.1271e-05
-0.0024046    0.048913 -9.6032e-05
-0.0026511     0.05136 -0.00010079
-0.0029098    0.053805 -0.00010555
-0.0031804    0.056249 -0.00011031
-0.0034631    0.058692 -0.00011507
-0.0037577    0.061134 -0.00011983
-0.0040644    0.063573 -0.00012459
-0.0043831    0.066012 -0.00012935
-0.0047137    0.068449 -0.00013411
-0.0050563    0.070884 -0.00013887
-0.005411    0.073317 -0.00014363
-0.0057775    0.075749 -0.00014839
-0.0061561    0.078178 -0.00015315
-0.0065465    0.080606 -0.00015792
-0.0069489    0.083032 -0.00016267
-0.0073633    0.085456 -0.00016741
-0.0077897    0.087878 -0.00017208
-0.0082283    0.090298 -0.00017663
-0.0086793    0.092715  -0.0001813
-0.0091414    0.095131  -0.0001878
-0.0011608   0.0022968  0.00059102
-0.0023883   0.0047118  0.00072812
-0.0036533    0.007157   0.0007254
-0.004924   0.0095959  0.00071831
-0.0062068    0.012028  0.00071309
-0.0075014    0.014453  0.00070833
-0.008808    0.016872  0.00070358
-0.010127    0.019285  0.00069883
-0.011457    0.021691  0.00069407
-0.012799     0.02409  0.00068931
-0.014153    0.026483  0.00068455
-0.015519    0.028869  0.00067979
-0.016896    0.031249  0.00067503
-0.018285    0.033621  0.00067026
-0.019686    0.035987   0.0006655
-0.021098    0.038346  0.00066074
-0.022522    0.040698  0.00065598
-0.023958    0.043043  0.00065122
-0.025405     0.04538  0.00064646
-0.026863    0.047711   0.0006417
-0.028333    0.050034  0.00063694
-0.029814    0.052351  0.00063218
-0.031307    0.054659  0.00062742
-0.032811    0.056961  0.00062266
-0.034327    0.059255   0.0006179
-0.035853    0.061541  0.00061314
-0.037391     0.06382  0.00060838
-0.03894    0.066092  0.00060362
-0.0405    0.068356  0.00059886
-0.042072    0.070612   0.0005941
-0.043654     0.07286  0.00058934
-0.045247    0.075101  0.00058458
-0.046852    0.077333  0.00057982
-0.048467    0.079558  0.00057508
-0.050093    0.081775  0.00057034
-0.051731    0.083983  0.00056561
-0.053379    0.086184  0.00056076
-0.055038    0.088375  0.00055525
-0.056708     0.09056  0.00054769
-0.002306   0.0011371 -0.00060072
-0.0047389   0.0023271 -0.00074755
-0.0072141   0.0035333 -0.00075526
-0.0096945   0.0047212   -0.000758
-0.01218   0.0058971 -0.00076236
-0.014671   0.0070607 -0.00076712
-0.017167   0.0082119 -0.00077189
-0.01967   0.0093509 -0.00077665
-0.022178    0.010478 -0.00078141
-0.024691    0.011592 -0.00078617
-0.02721    0.012694 -0.00079093
-0.029734    0.013783 -0.00079569
-0.032264     0.01486 -0.00080045
-0.034799    0.015925 -0.00080521
-0.037339    0.016977 -0.00080997
-0.039884    0.018017 -0.00081473
-0.042434    0.019044 -0.00081949
-0.044989    0.020059 -0.00082425
-0.04755    0.021061 -0.00082901
-0.050115     0.02205 -0.00083377
-0.052685    0.023027 -0.00083853
-0.055259    0.023991 -0.00084329
-0.057839    0.024942 -0.00084805
-0.060423    0.025881 -0.00085281
-0.063012    0.026807 -0.00085757
-0.065605     0.02772 -0.00086233
-0.068203    0.028621 -0.00086709
-0.070805    0.029509 -0.00087185
-0.073411    0.030384 -0.00087661
-0.076022    0.031246 -0.00088137
-0.078637    0.032095 -0.00088613
-0.081256    0.032931 -0.00089089
-0.083879    0.033755 -0.00089565
-0.086506    0.034565  -0.0009004
-0.089137    0.035363 -0.00090513
-0.091772    0.036147 -0.00090986
-0.094411    0.036919 -0.00091473
-0.097054    0.037677 -0.00092026
-0.0997    0.038423 -0.00092784
-0.0024253 -1.0193e-05 -4.2059e-06
-0.0047391 -2.8726e-05 -9.5176e-06
-0.0071851 -5.8145e-05 -1.5017e-05
-0.0096449  -9.942e-05 -1.9914e-05
-0.012104 -0.00015284 -2.4653e-05
-0.014562 -0.00021839 -2.9396e-05
-0.01702 -0.00029605  -3.415e-05
-0.019477  -0.0003858  -3.891e-05
-0.021934 -0.00048764  -4.367e-05
-0.024391 -0.00060156  -4.843e-05
-0.026847 -0.00072756  -5.319e-05
-0.029302 -0.00086563  -5.795e-05
-0.031756  -0.0010158 -6.2711e-05
-0.03421   -0.001178 -6.7471e-05
-0.036663  -0.0013523 -7.2231e-05
-0.039115  -0.0015386 -7.6991e-05
-0.041566   -0.001737 -8.1751e-05
-0.044016  -0.0019475 -8.6511e-05
-0.046465    -0.00217 -9.1271e-05
-0.048913  -0.0024046 -9.6032e-05
-0.05136  -0.0026511 -0.00010079
-0.053805  -0.0029098 -0.00010555
-0.056249  -0.0031804 -0.00011031
-0.058692  -0.0034631 -0.00011507
-0.061134  -0.0037577 -0.00011983
-0.063573  -0.0040644 -0.00012459
-0.066012  -0.0043831 -0.00012935
-0.068449  -0.0047137 -0.00013411
-0.070884  -0.0050563 -0.00013887
-0.073317   -0.005411 -0.00014363
-0.075749  -0.0057775 -0.00014839
-0.078178  -0.0061561 -0.00015315
-0.080606  -0.0065465 -0.00015792
-0.083032  -0.0069489 -0.00016267
-0.085456  -0.0073633 -0.00016741
-0.087878  -0.0077897 -0.00017208
-0.090298  -0.0082283 -0.00017663
-0.092715  -0.0086793  -0.0001813
-0.095131  -0.0091414  -0.0001878
-0.0022968  -0.0011608  0.00059102
-0.0047118  -0.0023883  0.00072812
-0.007157  -0.0036533   0.0007254
-0.0095959   -0.004924  0.00071831
-0.012028  -0.0062068  0.00071309
-0.014453  -0.0075014  0.00070833
-0.016872   -0.008808  0.00070358
-0.019285   -0.010127  0.00069883
-0.021691   -0.011457  0.00069407
-0.02409   -0.012799  0.00068931
-0.026483   -0.014153  0.00068455
-0.028869   -0.015519  0.00067979
-0.031249   -0.016896  0.00067503
-0.033621   -0.018285  0.00067026
-0.035987   -0.019686   0.0006655
-0.038346   -0.021098  0.00066074
-0.040698   -0.022522  0.00065598
-0.043043   -0.023958  0.00065122
-0.04538   -0.025405  0.00064646
-0.047711   -0.026863   0.0006417
-0.050034   -0.028333  0.00063694
-0.052351   -0.029814  0.00063218
-0.054659   -0.031307  0.00062742
-0.056961   -0.032811  0.00062266
-0.059255   -0.034327   0.0006179
-0.061541   -0.035853  0.00061314
-0.06382   -0.037391  0.00060838
-0.066092    -0.03894  0.00060362
-0.068356     -0.0405  0.00059886
-0.070612   -0.042072   0.0005941
-0.07286   -0.043654  0.00058934
-0.075101   -0.045247  0.00058458
-0.077333   -0.046852  0.00057982
-0.079558   -0.048467  0.00057508
-0.081775   -0.050093  0.00057034
-0.083983   -0.051731  0.00056561
-0.086184   -0.053379  0.00056076
-0.088375   -0.055038  0.00055525
-0.09056   -0.056708  0.00054769
-0.0011371   -0.002306 -0.00060072
-0.0023271  -0.0047389 -0.00074755
-0.0035333  -0.0072141 -0.00075526
-0.0047212  -0.0096945   -0.000758
-0.0058971    -0.01218 -0.00076236
-0.0070607   -0.014671 -0.00076712
-0.0082119   -0.017167 -0.00077189
-0.0093509    -0.01967 -0.00077665
-0.010478   -0.022178 -0.00078141
-0.011592   -0.024691 -0.00078617
-0.012694    -0.02721 -0.00079093
-0.013783   -0.029734 -0.00079569
-0.01486   -0.032264 -0.00080045
-0.015925   -0.034799 -0.00080521
-0.016977   -0.037339 -0.00080997
-0.018017   -0.039884 -0.00081473
-0.019044   -0.042434 -0.00081949
-0.020059   -0.044989 -0.00082425
-0.021061    -0.04755 -0.00082901
-0.02205   -0.050115 -0.00083377
-0.023027   -0.052685 -0.00083853
-0.023991   -0.055259 -0.00084329
-0.024942   -0.057839 -0.00084805
-0.025881   -0.060423 -0.00085281
-0.026807   -0.063012 -0.00085757
-0.02772   -0.065605 -0.00086233
-0.028621   -0.068203 -0.00086709
-0.029509   -0.070805 -0.00087185
-0.030384   -0.073411 -0.00087661
-0.031246   -0.076022 -0.00088137
-0.032095   -0.078637 -0.00088613
-0.032931   -0.081256 -0.00089089
-0.033755   -0.083879 -0.00089565
-0.034565   -0.086506  -0.0009004
-0.035363   -0.089137 -0.00090513
-0.036147   -0.091772 -0.00090986
-0.036919   -0.094411 -0.00091473
-0.037677   -0.097054 -0.00092026
-0.038423     -0.0997 -0.00092784
1.0193e-05  -0.0024253 -4.2059e-06
2.8726e-05  -0.0047391 -9.5176e-06
5.8145e-05  -0.0071851 -1.5017e-05
9.942e-05  -0.0096449 -1.9914e-05
0.00015284   -0.012104 -2.4653e-05
0.00021839   -0.014562 -2.9396e-05
0.00029605    -0.01702  -3.415e-05
0.0003858   -0.019477  -3.891e-05
0.00048764   -0.021934  -4.367e-05
0.00060156   -0.024391  -4.843e-05
0.00072756   -0.026847  -5.319e-05
0.00086563   -0.029302  -5.795e-05
0.0010158   -0.031756 -6.2711e-05
0.001178    -0.03421 -6.7471e-05
0.0013523   -0.036663 -7.2231e-05
0.0015386   -0.039115 -7.6991e-05
0.001737   -0.041566 -8.1751e-05
0.0019475   -0.044016 -8.6511e-05
0.00217   -0.046465 -9.1271e-05
0.0024046   -0.048913 -9.6032e-05
0.0026511    -0.05136 -0.00010079
0.0029098   -0.053805 -0.00010555
0.0031804   -0.056249 -0.00011031
0.0034631   -0.058692 -0.00011507