# vtk DataFile Version 3.0
VTK Output
ASCII
DATASET UNSTRUCTURED_GRID

POINTS 1025 float
-0.5        -0.5           0
0.5        -0.5           0
0.5         0.5           0
-0.5         0.5           0
-0.5         -0.5           10
0.5         -0.5           10
0.5          0.5           10
-0.5          0.5           10
-0.25        -0.5           0
-1.3751e-12        -0.5           0
0.25        -0.5           0
0.5       -0.25           0
0.5 -1.3751e-12           0
0.5        0.25           0
0.25         0.5           0
1.3751e-12         0.5           0
-0.25         0.5           0
-0.5        0.25           0
-0.5  1.3751e-12           0
-0.5       -0.25           0
-0.25         -0.5           10
-1.37512e-12         -0.5           10
0.25         -0.5           10
0.5        -0.25           10
0.5 -1.37512e-12           10
0.5         0.25           10
0.25          0.5           10
1.37512e-12          0.5           10
-0.25          0.5           10
-0.5         0.25           10
-0.5  1.37512e-12           10
-0.5        -0.25           10
-0.5        -0.5        0.25
-0.5        -0.5         0.5
-0.5        -0.5        0.75
-0.5        -0.5           1
-0.5        -0.5        1.25
-0.5        -0.5         1.5
-0.5        -0.5        1.75
-0.5        -0.5           2
-0.5        -0.5        2.25
-0.5        -0.5         2.5
-0.5        -0.5        2.75
-0.5        -0.5           3
-0.5        -0.5        3.25
-0.5        -0.5         3.5
-0.5        -0.5        3.75
-0.5        -0.5           4
-0.5        -0.5        4.25
-0.5        -0.5         4.5
-0.5        -0.5        4.75
-0.5        -0.5           5
-0.5        -0.5        5.25
-0.5        -0.5         5.5
-0.5        -0.5        5.75
-0.5        -0.5           6
-0.5        -0.5        6.25
-0.5        -0.5         6.5
-0.5        -0.5        6.75
-0.5        -0.5           7
-0.5        -0.5        7.25
-0.5        -0.5         7.5
-0.5        -0.5        7.75
-0.5        -0.5           8
-0.5        -0.5        8.25
-0.5        -0.5         8.5
-0.5        -0.5        8.75
-0.5        -0.5           9
-0.5        -0.5        9.25
-0.5        -0.5         9.5
-0.5        -0.5        9.75
0.5        -0.5        0.25
0.5        -0.5         0.5
0.5        -0.5        0.75
0.5        -0.5           1
0.5        -0.5        1.25
0.5        -0.5         1.5
0.5        -0.5        1.75
0.5        -0.5           2
0.5        -0.5        2.25
0.5        -0.5         2.5
0.5        -0.5        2.75
0.5        -0.5           3
0.5        -0.5        3.25
0.5        -0.5         3.5
0.5        -0.5        3.75
0.5        -0.5           4
0.5        -0.5        4.25
0.5        -0.5         4.5
0.5        -0.5        4.75
0.5        -0.5           5
0.5        -0.5        5.25
0.5        -0.5         5.5
0.5        -0.5        5.75
0.5        -0.5           6
0.5        -0.5        6.25
0.5        -0.5         6.5
0.5        -0.5        6.75
0.5        -0.5           7
0.5        -0.5        7.25
0.5        -0.5         7.5
0.5        -0.5        7.75
0.5        -0.5           8
0.5        -0.5        8.25
0.5        -0.5         8.5
0.5        -0.5        8.75
0.5        -0.5           9
0.5        -0.5        9.25
0.5        -0.5         9.5
0.5        -0.5        9.75
0.5         0.5        0.25
0.5         0.5         0.5
0.5         0.5        0.75
0.5         0.5           1
0.5         0.5        1.25
0.5         0.5         1.5
0.5         0.5        1.75
0.5         0.5           2
0.5         0.5        2.25
0.5         0.5         2.5
0.5         0.5        2.75
0.5         0.5           3
0.5         0.5        3.25
0.5         0.5         3.5
0.5         0.5        3.75
0.5         0.5           4
0.5         0.5        4.25
0.5         0.5         4.5
0.5         0.5        4.75
0.5         0.5           5
0.5         0.5        5.25
0.5         0.5         5.5
0.5         0.5        5.75
0.5         0.5           6
0.5         0.5        6.25
0.5         0.5         6.5
0.5         0.5        6.75
0.5         0.5           7
0.5         0.5        7.25
0.5         0.5         7.5
0.5         0.5        7.75
0.5         0.5           8
0.5         0.5        8.25
0.5         0.5         8.5
0.5         0.5        8.75
0.5         0.5           9
0.5         0.5        9.25
0.5         0.5         9.5
0.5         0.5        9.75
-0.5         0.5        0.25
-0.5         0.5         0.5
-0.5         0.5        0.75
-0.5         0.5           1
-0.5         0.5        1.25
-0.5         0.5         1.5
-0.5         0.5        1.75
-0.5         0.5           2
-0.5         0.5        2.25
-0.5         0.5         2.5
-0.5         0.5        2.75
-0.5         0.5           3
-0.5         0.5        3.25
-0.5         0.5         3.5
-0.5         0.5        3.75
-0.5         0.5           4
-0.5         0.5        4.25
-0.5         0.5         4.5
-0.5         0.5        4.75
-0.5         0.5           5
-0.5         0.5        5.25
-0.5         0.5         5.5
-0.5         0.5        5.75
-0.5         0.5           6
-0.5         0.5        6.25
-0.5         0.5         6.5
-0.5         0.5        6.75
-0.5         0.5           7
-0.5         0.5        7.25
-0.5         0.5         7.5
-0.5         0.5        7.75
-0.5         0.5           8
-0.5         0.5        8.25
-0.5         0.5         8.5
-0.5         0.5        8.75
-0.5         0.5           9
-0.5         0.5        9.25
-0.5         0.5         9.5
-0.5         0.5        9.75
-0.25       -0.25           0
-0.25  6.8756e-13           0
-0.25        0.25           0
-6.8756e-13       -0.25           0
-3.7821e-24           0           0
6.8756e-13        0.25           0
0.25       -0.25           0
0.25 -6.8756e-13           0
0.25        0.25           0
-0.25        -0.5        0.25
-0.25        -0.5         0.5
-0.25        -0.5        0.75
-0.25        -0.5           1
-0.25        -0.5        1.25
-0.25        -0.5         1.5
-0.25        -0.5        1.75
-0.25        -0.5           2
-0.25        -0.5        2.25
-0.25        -0.5         2.5
-0.25        -0.5        2.75
-0.25        -0.5           3
-0.25        -0.5        3.25
-0.25        -0.5         3.5
-0.25        -0.5        3.75
-0.25        -0.5           4
-0.25        -0.5        4.25
-0.25        -0.5         4.5
-0.25        -0.5        4.75
-0.25        -0.5           5
-0.25        -0.5        5.25
-0.25        -0.5         5.5
-0.25        -0.5        5.75
-0.25        -0.5           6
-0.25        -0.5        6.25
-0.25        -0.5         6.5
-0.25        -0.5        6.75
-0.25        -0.5           7
-0.25        -0.5        7.25
-0.25        -0.5         7.5
-0.25        -0.5        7.75
-0.25        -0.5           8
-0.25        -0.5        8.25
-0.25        -0.5         8.5
-0.25        -0.5        8.75
-0.25        -0.5           9
-0.25        -0.5        9.25
-0.25        -0.5         9.5
-0.25        -0.5        9.75
-1.3751e-12        -0.5        0.25
-1.3751e-12        -0.5         0.5
-1.3751e-12        -0.5        0.75
-1.3751e-12        -0.5           1
-1.3751e-12        -0.5        1.25
-1.3751e-12        -0.5         1.5
-1.3751e-12        -0.5        1.75
-1.3751e-12        -0.5           2
-1.3751e-12        -0.5        2.25
-1.3751e-12        -0.5         2.5
-1.3751e-12        -0.5        2.75
-1.3751e-12        -0.5           3
-1.3751e-12        -0.5        3.25
-1.3751e-12        -0.5         3.5
-1.3751e-12        -0.5        3.75
-1.3751e-12        -0.5           4
-1.3751e-12        -0.5        4.25
-1.3751e-12        -0.5         4.5
-1.3751e-12        -0.5        4.75
-1.3751e-12        -0.5           5
-1.3751e-12        -0.5        5.25
-1.3751e-12        -0.5         5.5
-1.3751e-12        -0.5        5.75
-1.3751e-12        -0.5           6
-1.3751e-12        -0.5        6.25
-1.3751e-12        -0.5         6.5
-1.3751e-12        -0.5        6.75
-1.3751e-12        -0.5           7
-1.3751e-12        -0.5        7.25
-1.3751e-12        -0.5         7.5
-1.3751e-12        -0.5        7.75
-1.3751e-12        -0.5           8
-1.3751e-12        -0.5        8.25
-1.3751e-12        -0.5         8.5
-1.3751e-12        -0.5        8.75
-1.3751e-12        -0.5           9
-1.3751e-12        -0.5        9.25
-1.3751e-12        -0.5         9.5
-1.3751e-12        -0.5        9.75
0.25        -0.5        0.25
0.25        -0.5         0.5
0.25        -0.5        0.75
0.25        -0.5           1
0.25        -0.5        1.25
0.25        -0.5         1.5
0.25        -0.5        1.75
0.25        -0.5           2
0.25        -0.5        2.25
0.25        -0.5         2.5
0.25        -0.5        2.75
0.25        -0.5           3
0.25        -0.5        3.25
0.25        -0.5         3.5
0.25        -0.5        3.75
0.25        -0.5           4
0.25        -0.5        4.25
0.25        -0.5         4.5
0.25        -0.5        4.75
0.25        -0.5           5
0.25        -0.5        5.25
0.25        -0.5         5.5
0.25        -0.5        5.75
0.25        -0.5           6
0.25        -0.5        6.25
0.25        -0.5         6.5
0.25        -0.5        6.75
0.25        -0.5           7
0.25        -0.5        7.25
0.25        -0.5         7.5
0.25        -0.5        7.75
0.25        -0.5           8
0.25        -0.5        8.25
0.25        -0.5         8.5
0.25        -0.5        8.75
0.25        -0.5           9
0.25        -0.5        9.25
0.25        -0.5         9.5
0.25        -0.5        9.75
0.5       -0.25        0.25
0.5       -0.25         0.5
0.5       -0.25        0.75
0.5       -0.25           1
0.5       -0.25        1.25
0.5       -0.25         1.5
0.5       -0.25        1.75
0.5       -0.25           2
0.5       -0.25        2.25
0.5       -0.25         2.5
0.5       -0.25        2.75
0.5       -0.25           3
0.5       -0.25        3.25
0.5       -0.25         3.5
0.5       -0.25        3.75
0.5       -0.25           4
0.5       -0.25        4.25
[...]
POINT_DATA 1025
VECTORS displacement double
0  0  0
0  0  0
0  0  0
0  0  0
0.10715      1.0879    -0.11031
-1.0879     0.10715    -0.11031
-0.10715     -1.0879    -0.11031
1.0879    -0.10715    -0.11031
0  0  0
0  0  0
0  0  0
0  0  0
0  0  0
0  0  0
0  0  0
0  0  0
0  0  0
0  0  0
0  0  0
0  0  0
-0.19162     0.84274    -0.12277
-0.49039     0.59755    -0.10368
-0.78917     0.35235   -0.087855
-0.84274    -0.19162    -0.12277
-0.59755    -0.49039    -0.10368
-0.35235    -0.78917   -0.087855
0.19162    -0.84274    -0.12277
0.49039    -0.59755    -0.10368
0.78917    -0.35235   -0.087855
0.84274     0.19162    -0.12277
0.59755     0.49039    -0.10368
0.35235     0.78917   -0.087855
0.054551   -0.042853 -0.00098889
0.12076   -0.090333  -0.0046724
0.19054    -0.12941   -0.007587
0.26367    -0.16033    -0.01023
0.33971     -0.1828   -0.012756
0.41777    -0.19655   -0.015231
0.49687    -0.20138   -0.017697
0.57601    -0.19726   -0.020165
0.65418    -0.18423   -0.022635
0.73039    -0.16247   -0.025106
0.80365    -0.13225   -0.027577
0.87304   -0.093964   -0.030047
0.93766    -0.04809   -0.032518
0.9967   0.0047809   -0.034989
1.0494    0.063974    -0.03746
1.0951     0.12873   -0.039931
1.1332     0.19823   -0.042402
1.1632     0.27159   -0.044873
1.1847     0.34786   -0.047344
1.1975     0.42607   -0.049815
1.2014     0.50522   -0.052286
1.1963     0.58431   -0.054757
1.1823     0.66232   -0.057228
1.1597     0.73826   -0.059699
1.1286     0.81116    -0.06217
1.0895     0.88008   -0.064641
1.0428     0.94416   -0.067112
0.98927      1.0026   -0.069583
0.92945      1.0545   -0.072054
0.86415      1.0995   -0.074525
0.7942      1.1367   -0.076996
0.7205      1.1658   -0.079467
0.64398      1.1865   -0.081932
0.56563      1.1983   -0.084382
0.48644      1.2012   -0.086807
0.4074      1.1951   -0.089244
0.3294      1.1799   -0.091934
0.25319      1.1559   -0.095635
0.17916      1.1241    -0.10144
0.042853    0.054551 -0.00098889
0.090333     0.12076  -0.0046724
0.12941     0.19054   -0.007587
0.16033     0.26367    -0.01023
0.1828     0.33971   -0.012756
0.19655     0.41777   -0.015231
0.20138     0.49687   -0.017697
0.19726     0.57601   -0.020165
0.18423     0.65418   -0.022635
0.16247     0.73039   -0.025106
0.13225     0.80365   -0.027577
0.093964     0.87304   -0.030047
0.04809     0.93766   -0.032518
-0.0047809      0.9967   -0.034989
-0.063974      1.0494    -0.03746
-0.12873      1.0951   -0.039931
-0.19823      1.1332   -0.042402
-0.27159      1.1632   -0.044873
-0.34786      1.1847   -0.047344
-0.42607      1.1975   -0.049815
-0.50522      1.2014   -0.052286
-0.58431      1.1963   -0.054757
-0.66232      1.1823   -0.057228
-0.73826      1.1597   -0.059699
-0.81116      1.1286    -0.06217
-0.88008      1.0895   -0.064641
-0.94416      1.0428   -0.067112
-1.0026     0.98927   -0.069583
-1.0545     0.92945   -0.072054
-1.0995     0.86415   -0.074525
-1.1367      0.7942   -0.076996
-1.1658      0.7205   -0.079467
-1.1865     0.64398   -0.081932
-1.1983     0.56563   -0.084382
-1.2012     0.48644   -0.086807
-1.1951      0.4074   -0.089244
-1.1799      0.3294   -0.091934
-1.1559     0.25319   -0.095635
-1.1241     0.17916    -0.10144
-0.054551    0.042853 -0.00098889
-0.12076    0.090333  -0.0046724
-0.19054     0.12941   -0.007587
-0.26367     0.16033    -0.01023
-0.33971      0.1828   -0.012756
-0.41777     0.19655   -0.015231
-0.49687     0.20138   -0.017697
-0.57601     0.19726   -0.020165
-0.65418     0.18423   -0.022635
-0.73039     0.16247   -0.025106
-0.80365     0.13225   -0.027577
-0.87304    0.093964   -0.030047
-0.93766     0.04809   -0.032518
-0.9967  -0.0047809   -0.034989
-1.0494   -0.063974    -0.03746
-1.0951    -0.12873   -0.039931
-1.1332    -0.19823   -0.042402
-1.1632    -0.27159   -0.044873
-1.1847    -0.34786   -0.047344
-1.1975    -0.42607   -0.049815
-1.2014    -0.50522   -0.052286
-1.1963    -0.58431   -0.054757
-1.1823    -0.66232   -0.057228
-1.1597    -0.73826   -0.059699
-1.1286    -0.81116    -0.06217
-1.0895    -0.88008   -0.064641
-1.0428    -0.94416   -0.067112
-0.98927     -1.0026   -0.069583
-0.92945     -1.0545   -0.072054
-0.86415     -1.0995   -0.074525
-0.7942     -1.1367   -0.076996
-0.7205     -1.1658   -0.079467
-0.64398     -1.1865   -0.081932
-0.56563     -1.1983   -0.084382
-0.48644     -1.2012   -0.086807
-0.4074     -1.1951   -0.089244
-0.3294     -1.1799   -0.091934
-0.25319     -1.1559   -0.095635
-0.17916     -1.1241    -0.10144
-0.042853   -0.054551 -0.00098889
-0.090333    -0.12076  -0.0046724
-0.12941    -0.19054   -0.007587
-0.16033    -0.26367    -0.01023
-0.1828    -0.33971   -0.012756
-0.19655    -0.41777   -0.015231
-0.20138    -0.49687   -0.017697
-0.19726    -0.57601   -0.020165
-0.18423    -0.65418   -0.022635
-0.16247    -0.73039   -0.025106
-0.13225    -0.80365   -0.027577
-0.093964    -0.87304   -0.030047
-0.04809    -0.93766   -0.032518
0.0047809     -0.9967   -0.034989
0.063974     -1.0494    -0.03746
0.12873     -1.0951   -0.039931
0.19823     -1.1332   -0.042402
0.27159     -1.1632   -0.044873
0.34786     -1.1847   -0.047344
0.42607     -1.1975   -0.049815
0.50522     -1.2014   -0.052286
0.58431     -1.1963   -0.054757
0.66232     -1.1823   -0.057228
0.73826     -1.1597   -0.059699
0.81116     -1.1286    -0.06217
0.88008     -1.0895   -0.064641
0.94416     -1.0428   -0.067112
1.0026    -0.98927   -0.069583
1.0545    -0.92945   -0.072054
1.0995    -0.86415   -0.074525
1.1367     -0.7942   -0.076996
1.1658     -0.7205   -0.079467
1.1865    -0.64398   -0.081932
1.1983    -0.56563   -0.084382
1.2012    -0.48644   -0.086807
1.1951     -0.4074   -0.089244
1.1799     -0.3294   -0.091934
1.1559    -0.25319   -0.095635
1.1241    -0.17916    -0.10144
0  0  0
0  0  0
0  0  0
0  0  0
0  0  0
0  0  0
0  0  0
0  0  0
0  0  0
0.053986   -0.019782   -0.015991
0.11291   -0.037198   -0.021833
0.17463    -0.04925   -0.024715
0.23721    -0.05425   -0.027236
0.29985   -0.052187   -0.029702
0.36182   -0.043054   -0.032167
0.42237   -0.026977   -0.034634
0.48072  -0.0041689   -0.037104
0.53612    0.025077   -0.039574
0.58787    0.060386   -0.042045
0.63531     0.10131   -0.044516
0.67782     0.14732   -0.046987
0.71488     0.19783   -0.049458
0.746     0.25221   -0.051929
0.77079     0.30974     -0.0544
0.78893     0.36971   -0.056871
0.80018     0.43133   -0.059342
0.80442     0.49384   -0.061813
0.80157     0.55642   -0.064284
0.79169     0.61828   -0.066755
0.77489     0.67864   -0.069226
0.75138     0.73671   -0.071697
0.72148     0.79176   -0.074168
0.68556     0.84308   -0.076639
0.64407     0.89003    -0.07911
0.59756       0.932   -0.081581
0.54661     0.96845   -0.084051
0.49187     0.99892   -0.086522
0.43404       1.023   -0.088993
0.37387      1.0404   -0.091464
0.31211       1.051   -0.093936
0.24956      1.0545   -0.096406
0.18702      1.0509   -0.098874
0.12528      1.0403    -0.10134
0.06514      1.0227    -0.10379
0.0073516     0.99841    -0.10626
-0.047354     0.96745    -0.10886
-0.098367     0.93004    -0.11196
-0.1452     0.88735    -0.11615
0.054372   0.0051987  -0.0020736
0.10638    0.014814  -0.0048636
0.16019    0.029982   -0.007749
0.2123    0.051022   -0.010306
0.26165    0.077818   -0.012767
0.30762     0.11002   -0.015227
0.34965     0.14721   -0.017693
0.38722     0.18891   -0.020164
0.41984     0.23457   -0.022634
0.4471     0.28363   -0.025106
0.46866     0.33545   -0.027577
0.48423     0.38937   -0.030048
0.49362      0.4447   -0.032518
0.4967     0.50074   -0.034989
0.49345     0.55677    -0.03746
0.4839     0.61207   -0.039931
0.46817     0.66594   -0.042402
0.44646      0.7177   -0.044873
0.41905     0.76667   -0.047344
0.38629     0.81224   -0.049815
0.3486     0.85383   -0.052286
0.30646      0.8909   -0.054757
0.26041     0.92297   -0.057228
0.21103     0.94965   -0.059699
0.15896     0.97058    -0.06217
0.10485     0.98551   -0.064641
0.049414     0.99424   -0.067112
-0.0066563     0.99666   -0.069583
-0.062642     0.99274   -0.072054
-0.11783     0.98253   -0.074525
-0.17151     0.96616   -0.076996
-0.223     0.94383   -0.079468
-0.27165     0.91585    -0.08194
-0.31682     0.88256   -0.084408
-0.35794     0.84437   -0.086861
-0.39446     0.80173   -0.089266
-0.42582     0.75504   -0.091604
-0.45157     0.70468   -0.094058
-0.47197     0.65141   -0.097632
0.04923    0.031929      0.0111
0.098771    0.068793    0.011895
0.14506     0.11113    0.009323
0.18649     0.15821   0.0067041
0.22232     0.20965   0.0041897
0.25208     0.26479   0.0017141
0.27542     0.32293 -0.00075501
0.29204     0.38333  -0.0032245
0.30174     0.44522   -0.005695
0.3044     0.50781  -0.0081658
0.29998     0.57031   -0.010637
0.28854      0.6319   -0.013108
0.27022     0.69181   -0.015579
0.24526     0.74927    -0.01805
0.21398     0.80355   -0.020521
0.17677     0.85395   -0.022991
0.13412     0.89984   -0.025462
0.086561     0.94062   -0.027933
0.034706     0.97577   -0.030404
-0.020783      1.0049   -0.032875
-0.079199      1.0275   -0.035346
-0.1398      1.0434   -0.037817
-0.2018      1.0524   -0.040288
-0.26442      1.0543   -0.042759
-0.32685      1.0491    -0.04523
-0.3883      1.0369   -0.047701
-0.44799      1.0179   -0.050172
-0.50515     0.99225   -0.052643
-0.55905     0.96033   -0.055114
-0.60901     0.92253   -0.057585
-0.65439     0.87933   -0.060056
-0.6946     0.83129   -0.062527
-0.72913     0.77902   -0.064997
-0.75755      0.7232   -0.067461
-0.77947     0.66452   -0.069908
-0.79455     0.60373   -0.072331
-0.80253     0.54152   -0.074784
-0.80331      0.4785   -0.077553
-0.79749     0.41477    -0.08164
0.019782    0.053986   -0.015991
0.037198     0.11291   -0.021833
0.04925     0.17463   -0.024715
0.05425     0.23721   -0.027236
0.052187     0.29985   -0.029702
0.043054     0.36182   -0.032167
0.026977     0.42237   -0.034634
0.0041689     0.48072   -0.037104
-0.025077     0.53612   -0.039574
-0.060386     0.58787   -0.042045
-0.10131     0.63531   -0.044516
-0.14732     0.67782   -0.046987
-0.19783     0.71488   -0.049458
-0.25221       0.746   -0.051929
-0.30974     0.77079     -0.0544
-0.36971     0.78893   -0.056871
-0.43133     0.80018   -0.059342
-0.49384     0.80442   -0.061813
-0.55642     0.80157   -0.064284
-0.61828     0.79169   -0.066755
-0.67864     0.77489   -0.069226
-0.73671     0.75138   -0.071697
-0.79176     0.72148   -0.074168
-0.84308     0.68556   -0.076639
-0.89003     0.64407    -0.07911
-0.932     0.59756   -0.081581
-0.96845     0.54661   -0.084051
-0.99892     0.49187   -0.086522
-1.023     0.43404   -0.088993
-1.0404     0.37387   -0.091464
-1.051     0.31211   -0.093936
-1.0545     0.24956   -0.096406
-1.0509     0.18702   -0.098874
-1.0403     0.12528    -0.10134
-1.0227     0.06514    -0.10379
-0.99841   0.0073516    -0.10626
-0.96745   -0.047354    -0.10886
-0.93004   -0.098367    -0.11196
-0.88735     -0.1452    -0.11615
-0.0051987    0.054372  -0.0020736
-0.014814     0.10638  -0.0048636
-0.029982     0.16019   -0.007749
-0.051022      0.2123   -0.010306
-0.077818     0.26165   -0.012767
-0.11002     0.30762   -0.015227
-0.14721     0.34965   -0.017693
-0.18891     0.38722   -0.020164
-0.23457     0.41984   -0.022634
-0.28363      0.4471   -0.025106
-0.33545     0.46866   -0.027577
-0.38937     0.48423   -0.030048
-0.4447     0.49362   -0.032518
-0.50074      0.4967   -0.034989
-0.55677     0.49345    -0.03746
-0.61207      0.4839   -0.039931
-0.66594     0.46817   -0.042402
-0.7177     0.44646   -0.044873
-0.76667     0.41905   -0.047344
-0.81224     0.38629   -0.049815
-0.85383      0.3486   -0.052286
-0.8909     0.30646   -0.054757
-0.92297     0.26041   -0.057228
-0.94965     0.21103   -0.059699
-0.97058     0.15896    -0.06217
-0.98551     0.10485   -0.064641
-0.99424    0.049414   -0.067112
-0.99666  -0.0066563   -0.069583
-0.99274   -0.062642   -0.072054
-0.98253    -0.11783   -0.074525
-0.96616    -0.17151   -0.076996
-0.94383      -0.223   -0.079468
-0.91585    -0.27165    -0.08194
-0.88256    -0.31682   -0.084408
-0.84437    -0.35794   -0.086861
-0.80173    -0.39446   -0.089266
-0.75504    -0.42582   -0.091604
-0.70468    -0.45157   -0.094058
-0.65141    -0.47197   -0.097632
-0.031929     0.04923      0.0111
-0.068793    0.098771    0.011895
-0.11113     0.14506    0.009323
-0.15821     0.18649   0.0067041
-0.20965     0.22232   0.0041897
-0.26479     0.25208   0.0017141
-0.32293     0.27542 -0.00075501
-0.38333     0.29204  -0.0032245
-0.44522     0.30174   -0.005695
-0.50781      0.3044  -0.0081658
-0.57031     0.29998   -0.010637
-0.6319     0.28854   -0.013108
-0.69181     0.27022   -0.015579
-0.74927     0.24526    -0.01805
-0.80355     0.21398   -0.020521
-0.85395     0.17677   -0.022991
-0.89984     0.13412   -0.025462
-0.94062    0.086561   -0.027933
-0.97577    0.034706   -0.030404
-1.0049   -0.020783   -0.032875
-1.0275   -0.079199   -0.035346
-1.0434     -0.1398   -0.037817
-1.0524     -0.2018   -0.040288
-1.0543    -0.26442   -0.042759
-1.0491    -0.32685    -0.04523
-1.0369     -0.3883   -0.047701
-1.0179    -0.44799   -0.050172
-0.99225    -0.50515   -0.052643
-0.96033    -0.55905   -0.055114
-0.92253    -0.60901   -0.057585
-0.87933    -0.65439   -0.060056
-0.83129     -0.6946   -0.062527
-0.77902    -0.72913   -0.064997
-0.7232    -0.75755   -0.067461
-0.66452    -0.77947   -0.069908
-0.60373    -0.79455   -0.072331
-0.54152    -0.80253   -0.074784
-0.4785    -0.80331   -0.077553
-0.41477    -0.79749    -0.08164
-0.053986    0.019782   -0.015991
-0.11291    0.037198   -0.021833
-0.17463     0.04925   -0.024715
-0.23721     0.05425   -0.027236
-0.29985    0.052187   -0.029702
-0.36182    0.043054   -0.032167
-0.42237    0.026977   -0.034634
-0.48072   0.0041689   -0.037104
-0.53612   -0.025077   -0.039574
-0.58787   -0.060386   -0.042045
-0.63531    -0.10131   -0.044516
-0.67782    -0.14732   -0.046987
-0.71488    -0.19783   -0.049458
-0.746    -0.25221   -0.051929
-0.77079    -0.30974     -0.0544
-0.78893    -0.36971   -0.056871
-0.80018    -0.43133   -0.059342
-0.80442    -0.49384   -0.061813
-0.80157    -0.55642   -0.064284
-0.79169    -0.61828   -0.066755
-0.77489    -0.67864   -0.069226
-0.75138    -0.73671   -0.071697
-0.72148    -0.79176   -0.074168
-0.68556    -0.84308   -0.076639
-0.64407    -0.89003    -0.07911
-0.59756      -0.932   -0.081581
-0.54661    -0.96845   -0.084051
-0.49187    -0.99892   -0.086522
-0.43404      -1.023   -0.088993
-0.37387     -1.0404   -0.091464
-0.31211      -1.051   -0.093936
-0.24956     -1.0545   -0.096406
-0.18702     -1.0509   -0.098874
-0.12528     -1.0403    -0.10134
-0.06514     -1.0227    -0.10379
-0.0073516    -0.99841    -0.10626
0.047354    -0.96745    -0.10886
0.098367    -0.93004    -0.11196
0.1452    -0.88735    -0.11615
-0.054372  -0.0051987  -0.0020736
-0.10638   -0.014814  -0.0048636
-0.16019   -0.029982   -0.007749
-0.2123   -0.051022   -0.010306
-0.26165   -0.077818   -0.012767
-0.30762    -0.11002   -0.015227
-0.34965    -0.14721   -0.017693
-0.38722    -0.18891   -0.020164
-0.41984    -0.23457   -0.022634
-0.4471    -0.28363   -0.025106
-0.46866    -0.33545   -0.027577
-0.48423    -0.38937   -0.030048
-0.49362     -0.4447   -0.032518
-0.4967    -0.50074   -0.034989
-0.49345    -0.55677    -0.03746
-0.4839    -0.61207   -0.039931
-0.46817    -0.66594   -0.042402
-0.44646     -0.7177   -0.044873
-0.41905    -0.76667   -0.047344
-0.38629    -0.81224   -0.049815
-0.3486    -0.85383   -0.052286
-0.30646     -0.8909   -0.054757
-0.26041    -0.92297   -0.057228
-0.21103    -0.94965   -0.059699
-0.15896    -0.97058    -0.06217
-0.10485    -0.98551   -0.064641
-0.049414    -0.99424   -0.067112
0.0066563    -0.99666   -0.069583
0.062642    -0.99274   -0.072054
0.11783    -0.98253   -0.074525
0.17151    -0.96616   -0.076996
0.223    -0.94383   -0.079468
0.27165    -0.91585    -0.08194
0.31682    -0.88256   -0.084408
0.35794    -0.84437   -0.086861
0.39446    -0.80173   -0.089266
0.42582    -0.75504   -0.091604
0.45157    -0.70468   -0.094058
0.47197    -0.65141   -0.097632
-0.04923   -0.031929      0.0111
-0.098771   -0.068793    0.011895
-0.14506    -0.11113    0.009323
-0.18649    -0.15821   0.0067041
-0.22232    -0.20965   0.0041897
-0.25208    -0.26479   0.0017141
-0.27542    -0.32293 -0.00075501
-0.29204    -0.38333  -0.0032245
-0.30174    -0.44522   -0.005695
-0.3044    -0.50781  -0.0081658
-0.29998    -0.57031   -0.010637
-0.28854     -0.6319   -0.013108
-0.27022    -0.69181   -0.015579
-0.24526    -0.74927    -0.01805
-0.21398    -0.80355   -0.020521
-0.17677    -0.85395   -0.022991
-0.13412    -0.89984   -0.025462
-0.086561    -0.94062   -0.027933
-0.034706    -0.97577   -0.030404
0.020783     -1.0049   -0.032875
0.079199     -1.0275   -0.035346
0.1398     -1.0434   -0.037817
0.2018     -1.0524   -0.040288
0.26442     -1.0543   -0.042759
0.32685     -1.0491    -0.04523
0.3883     -1.0369   -0.047701
0.44799     -1.0179   -0.050172
0.50515    -0.99225   -0.052643
0.55905    -0.96033   -0.055114
0.60901    -0.92253   -0.057585
0.65439    -0.87933   -0.060056
0.6946    -0.83129   -0.062527
0.72913    -0.77902   -0.064997
0.75755     -0.7232   -0.067461
0.77947    -0.66452   -0.069908
0.79455    -0.60373   -0.072331
0.80253    -0.54152   -0.074784
0.80331     -0.4785   -0.077553
0.79749    -0.41477    -0.08164
-0.019782   -0.053986   -0.015991
-0.037198    -0.11291   -0.021833
-0.04925    -0.17463   -0.024715
-0.05425    -0.23721   -0.027236
-0.052187    -0.29985   -0.029702
-0.043054    -0.36182   -0.032167
-0.026977    -0.42237   -0.034634
-0.0041689    -0.48072   -0.037104
0.025077    -0.53612   -0.039574
0.060386    -0.58787   -0.042045
0.10131    -0.63531   -0.044516
0.14732    -0.67782   -0.046987
0.19783    -0.71488   -0.049458
0.25221      -0.746   -0.051929
0.30974    -0.77079     -0.0544
0.36971    -0.78893   -0.056871
0.43133    -0.80018   -0.059342
0.49384    -0.80442   -0.061813
0.55642    -0.80157   -0.064284
0.61828    -0.79169   -0.066755
0.67864    -0.77489   -0.069226
0.73671    -0.75138   -0.071697
0.79176    -0.72148   -0.074168
0.84308    -0.68556   -0.076639
0.89003    -0.64407    -0.07911
0.932    -0.59756   -0.081581
0.96845    -0.54661   -0.084051
0.99892    -0.49187   -0.086522
1.023    -0.43404   -0.088993
1.0404    -0.37387   -0.091464
1.051    -0.31211   -0.093936
1.0545    -0.24956   -0.096406
1.0509    -0.18702   -0.098874
1.0403    -0.12528    -0.10134
1.0227    -0.06514    -0.10379
0.99841  -0.0073516    -0.10626
0.96745    0.047354    -0.10886
0.93004    0.098367    -0.11196
0.88735      0.1452    -0.11615
0.0051987   -0.054372  -0.0020736
0.014814    -0.10638  -0.0048636
0.029982    -0.16019   -0.007749
0.051022     -0.2123   -0.010306
0.077818    -0.26165   -0.012767
0.11002    -0.30762   -0.015227
0.14721    -0.34965   -0.017693
0.18891    -0.38722   -0.020164
0.23457    -0.41984   -0.022634
0.28363     -0.4471   -0.025106
0.33545    -0.46866   -0.027577
0.38937    -0.48423   -0.030048
0.4447    -0.49362   -0.032518
0.50074     -0.4967   -0.034989
0.55677    -0.49345    -0.03746
0.61207     -0.4839   -0.039931
0.66594    -0.46817   -0.042402
0.7177    -0.44646   -0.044873
0.76667    -0.41905   -0.047344
0.81224    -0.38629   -0.049815
0.85383     -0.3486   -0.052286
0.8909    -0.30646   -0.054757
0.92297    -0.26041   -0.057228
0.94965    -0.21103   -0.059699
0.97058    -0.15896    -0.06217
0.98551    -0.10485   -0.064641
0.99424   -0.049414   -0.067112
0.99666   0.0066563   -0.069583
0.99274    0.062642   -0.072054
0.98253     0.11783   -0.074525
0.96616     0.17151   -0.076996
0.94383       0.223   -0.079468
0.91585     0.27165    -0.08194
0.88256     0.31682   -0.084408
0.84437     0.35794   -0.086861
0.80173     0.39446   -0.089266
0.75504     0.42582   -0.091604
0.70468     0.45157   -0.094058
0.65141     0.47197   -0.097632
0.031929    -0.04923      0.0111
0.068793   -0.098771    0.011895
0.11113    -0.14506    0.009323
0.15821    -0.18649   0.0067041
0.20965    -0.22232   0.0041897
0.26479    -0.25208   0.0017141
0.32293    -0.27542 -0.00075501
0.38333    -0.29204  -0.0032245