# vtk DataFile Version 3.0
VTK Output
ASCII
DATASET UNSTRUCTURED_GRID

POINTS 1025 float
-0.5        -0.5           0
0.5        -0.5           0
0.5         0.5           0
-0.5         0.5           0
-0.5         -0.5           10
0.5         -0.5           10
0.5          0.5           10
-0.5          0.5           10
-0.25        -0.5           0
-1.3751e-12        -0.5           0
0.25        -0.5           0
0.5       -0.25           0
0.5 -1.3751e-12           0
0.5        0.25           0
0.25         0.5           0
1.3751e-12         0.5           0
-0.25         0.5           0
-0.5        0.25           0
-0.5  1.3751e-12           0
-0.5       -0.25           0
-0.25         -0.5           10
-1.37512e-12         -0.5           10
0.25         -0.5           10
0.5        -0.25           10
0.5 -1.37512e-12           10
0.5         0.25           10
0.25          0.5           10
1.37512e-12          0.5           10
-0.25          0.5           10
-0.5         0.25           10
-0.5  1.37512e-12           10
-0.5        -0.25           10
-0.5        -0.5        0.25
-0.5        -0.5         0.5
-0.5        -0.5        0.75
-0.5        -0.5           1
-0.5        -0.5        1.25
-0.5        -0.5         1.5
-0.5        -0.5        1.75
-0.5        -0.5           2
-0.5        -0.5        2.25
-0.5        -0.5         2.5
-0.5        -0.5        2.75
-0.5        -0.5           3
-0.5        -0.5        3.25
-0.5        -0.5         3.5
-0.5        -0.5        3.75
-0.5        -0.5           4
-0.5        -0.5        4.25
-0.5        -0.5         4.5
-0.5        -0.5        4.75
-0.5        -0.5           5
-0.5        -0.5        5.25
-0.5        -0.5         5.5
-0.5        -0.5        5.75
-0.5        -0.5           6
-0.5        -0.5        6.25
-0.5        -0.5         6.5
-0.5        -0.5        6.75
-0.5        -0.5           7
-0.5        -0.5        7.25
-0.5        -0.5         7.5
-0.5        -0.5        7.75
-0.5        -0.5           8
-0.5        -0.5        8.25
-0.5        -0.5         8.5
-0.5        -0.5        8.75
-0.5        -0.5           9
-0.5        -0.5        9.25
-0.5        -0.5         9.5
-0.5        -0.5        9.75
0.5        -0.5        0.25
0.5        -0.5         0.5
0.5        -0.5        0.75
0.5        -0.5           1
0.5        -0.5        1.25
0.5        -0.5         1.5
0.5        -0.5        1.75
0.5        -0.5           2
0.5        -0.5        2.25
0.5        -0.5         2.5
0.5        -0.5        2.75
0.5        -0.5           3
0.5        -0.5        3.25
0.5        -0.5         3.5
0.5        -0.5        3.75
0.5        -0.5           4
0.5        -0.5        4.25
0.5        -0.5         4.5
0.5        -0.5        4.75
0.5        -0.5           5
0.5        -0.5        5.25
0.5        -0.5         5.5
0.5        -0.5        5.75
0.5        -0.5           6
0.5        -0.5        6.25
0.5        -0.5         6.5
0.5        -0.5        6.75
0.5        -0.5           7
0.5        -0.5        7.25
0.5        -0.5         7.5
0.5        -0.5        7.75
0.5        -0.5           8
0.5        -0.5        8.25
0.5        -0.5         8.5
0.5        -0.5        8.75
0.5        -0.5           9
0.5        -0.5        9.25
0.5        -0.5         9.5
0.5        -0.5        9.75
0.5         0.5        0.25
0.5         0.5         0.5
0.5         0.5        0.75
0.5         0.5           1
0.5         0.5        1.25
0.5         0.5         1.5
0.5         0.5        1.75
0.5         0.5           2
0.5         0.5        2.25
0.5         0.5         2.5
0.5         0.5        2.75
0.5         0.5           3
0.5         0.5        3.25
0.5         0.5         3.5
0.5         0.5        3.75
0.5         0.5           4
0.5         0.5        4.25
0.5         0.5         4.5
0.5         0.5        4.75
0.5         0.5           5
0.5         0.5        5.25
0.5         0.5         5.5
0.5         0.5        5.75
0.5         0.5           6
0.5         0.5        6.25
0.5         0.5         6.5
0.5         0.5        6.75
0.5         0.5           7
0.5         0.5        7.25
0.5         0.5         7.5
0.5         0.5        7.75
0.5         0.5           8
0.5         0.5        8.25
0.5         0.5         8.5
0.5         0.5        8.75
0.5         0.5           9
0.5         0.5        9.25
0.5         0.5         9.5
0.5         0.5        9.75
-0.5         0.5        0.25
-0.5         0.5         0.5
-0.5         0.5        0.75
-0.5         0.5           1
-0.5         0.5        1.25
-0.5         0.5         1.5
-0.5         0.5        1.75
-0.5         0.5           2
-0.5         0.5        2.25
-0.5         0.5         2.5
-0.5         0.5        2.75
-0.5         0.5           3
-0.5         0.5        3.25
-0.5         0.5         3.5
-0.5         0.5        3.75
-0.5         0.5           4
-0.5         0.5        4.25
-0.5         0.5         4.5
-0.5         0.5        4.75
-0.5         0.5           5
-0.5         0.5        5.25
-0.5         0.5         5.5
-0.5         0.5        5.75
-0.5         0.5           6
-0.5         0.5        6.25
-0.5         0.5         6.5
-0.5         0.5        6.75
-0.5         0.5           7
-0.5         0.5        7.25
-0.5         0.5         7.5
-0.5         0.5        7.75
-0.5         0.5           8
-0.5         0.5        8.25
-0.5         0.5         8.5
-0.5         0.5        8.75
-0.5         0.5           9
-0.5         0.5        9.25
-0.5         0.5         9.5
-0.5         0.5        9.75
-0.25       -0.25           0
-0.25  6.8756e-13           0
-0.25        0.25           0
-6.8756e-13       -0.25           0
-3.7821e-24           0           0
6.8756e-13        0.25           0
0.25       -0.25           0
0.25 -6.8756e-13           0
0.25        0.25           0
-0.25        -0.5        0.25
-0.25        -0.5         0.5
-0.25        -0.5        0.75
-0.25        -0.5           1
-0.25        -0.5        1.25
-0.25        -0.5         1.5
-0.25        -0.5        1.75
-0.25        -0.5           2
-0.25        -0.5        2.25
-0.25        -0.5         2.5
-0.25        -0.5        2.75
-0.25        -0.5           3
-0.25        -0.5        3.25
-0.25        -0.5         3.5
-0.25        -0.5        3.75
-0.25        -0.5           4
-0.25        -0.5        4.25
-0.25        -0.5         4.5
-0.25        -0.5        4.75
-0.25        -0.5           5
-0.25        -0.5        5.25
-0.25        -0.5         5.5
-0.25        -0.5        5.75
-0.25        -0.5           6
-0.25        -0.5        6.25
-0.25        -0.5         6.5
-0.25        -0.5        6.75
-0.25        -0.5           7
-0.25        -0.5        7.25
-0.25        -0.5         7.5
-0.25        -0.5        7.75
-0.25        -0.5           8
-0.25        -0.5        8.25
-0.25        -0.5         8.5
-0.25        -0.5        8.75
-0.25        -0.5           9
-0.25        -0.5        9.25
-0.25        -0.5         9.5
-0.25        -0.5        9.75
-1.3751e-12        -0.5        0.25
-1.3751e-12        -0.5         0.5
-1.3751e-12        -0.5        0.75
-1.3751e-12        -0.5           1
-1.3751e-12        -0.5        1.25
-1.3751e-12        -0.5         1.5
-1.3751e-12        -0.5        1.75
-1.3751e-12        -0.5           2
-1.3751e-12        -0.5        2.25
-1.3751e-12        -0.5         2.5
-1.3751e-12        -0.5        2.75
-1.3751e-12        -0.5           3
-1.3751e-12        -0.5        3.25
-1.3751e-12        -0.5         3.5
-1.3751e-12        -0.5        3.75
-1.3751e-12        -0.5           4
-1.3751e-12        -0.5        4.25
-1.3751e-12        -0.5         4.5
-1.3751e-12        -0.5        4.75
-1.3751e-12        -0.5           5
-1.3751e-12        -0.5        5.25
-1.3751e-12        -0.5         5.5
-1.3751e-12        -0.5        5.75
-1.3751e-12        -0.5           6
-1.3751e-12        -0.5        6.25
-1.3751e-12        -0.5         6.5
-1.3751e-12        -0.5        6.75
-1.3751e-12        -0.5           7
-1.3751e-12        -0.5        7.25
-1.3751e-12        -0.5         7.5
-1.3751e-12        -0.5        7.75
-1.3751e-12        -0.5           8
-1.3751e-12        -0.5        8.25
-1.3751e-12        -0.5         8.5
-1.3751e-12        -0.5        8.75
-1.3751e-12        -0.5           9
-1.3751e-12        -0.5        9.25
-1.3751e-12        -0.5         9.5
-1.3751e-12        -0.5        9.75
0.25        -0.5        0.25
0.25        -0.5         0.5
0.25        -0.5        0.75
0.25        -0.5           1
0.25        -0.5        1.25
0.25        -0.5         1.5
0.25        -0.5        1.75
0.25        -0.5           2
0.25        -0.5        2.25
0.25        -0.5         2.5
0.25        -0.5        2.75
0.25        -0.5           3
0.25        -0.5        3.25
0.25        -0.5         3.5
0.25        -0.5        3.75
0.25        -0.5           4
0.25        -0.5        4.25
0.25        -0.5         4.5
0.25        -0.5        4.75
0.25        -0.5           5
0.25        -0.5        5.25
0.25        -0.5         5.5
0.25        -0.5        5.75
0.25        -0.5           6
0.25        -0.5        6.25
0.25        -0.5         6.5
0.25        -0.5        6.75
0.25        -0.5           7
0.25        -0.5        7.25
0.25        -0.5         7.5
0.25        -0.5        7.75
0.25        -0.5           8
0.25        -0.5        8.25
0.25        -0.5         8.5
0.25        -0.5        8.75
0.25        -0.5           9
0.25        -0.5        9.25
0.25        -0.5         9.5
0.25        -0.5        9.75
0.5       -0.25        0.25
0.5       -0.25         0.5
0.5       -0.25        0.75
0.5       -0.25           1
0.5       -0.25        1.25
0.5       -0.25         1.5
0.5       -0.25        1.75
0.5       -0.25           2
0.5       -0.25        2.25
0.5       -0.25         2.5
0.5       -0.25        2.75
0.5       -0.25           3
0.5       -0.25        3.25
0.5       -0.25         3.5
0.5       -0.25        3.75
0.5       -0.25           4
0.5       -0.25        4.25
[...]
POINT_DATA 1025
VECTORS displacement double
0  0  0
0  0  0
0  0  0
0  0  0
-0.087938     0.10715    -0.19854
-0.10715   -0.087938    -0.19854
0.087938    -0.10715    -0.19854
0.10715    0.087938    -0.19854
0  0  0
0  0  0
0  0  0
0  0  0
0  0  0
0  0  0
0  0  0
0  0  0
0  0  0
0  0  0
0  0  0
0  0  0
-0.092741     0.05838    -0.21323
-0.097545   0.0096074     -0.1862
-0.10235   -0.039165    -0.16513
-0.05838   -0.092741    -0.21323
-0.0096074   -0.097545     -0.1862
0.039165    -0.10235    -0.16513
0.092741    -0.05838    -0.21323
0.097545  -0.0096074     -0.1862
0.10235    0.039165    -0.16513
0.05838    0.092741    -0.21323
0.0096074    0.097545     -0.1862
-0.039165     0.10235    -0.16513
0.074973   -0.054085  -0.0016849
0.16648    -0.11217  -0.0081462
0.26436    -0.15551   -0.013459
0.36689    -0.18371   -0.018243
0.47226    -0.19605   -0.022773
0.5782    -0.19223   -0.027197
0.68231    -0.17237   -0.031604
0.7822    -0.13694   -0.036015
0.87555   -0.086756   -0.040431
0.96022   -0.022994    -0.04485
1.0342    0.052873   -0.049268
1.0959     0.13909   -0.053687
1.1437     0.23366   -0.058106
1.1767     0.33439   -0.062525
1.194     0.43896   -0.066944
1.1952     0.54494   -0.071363
1.1803     0.64988   -0.075781
1.1497     0.75135     -0.0802
1.1041     0.84701   -0.084619
1.0444     0.93463   -0.089038
0.97221      1.0122   -0.093457
0.88905      1.0779   -0.097876
0.79688      1.1302    -0.10229
0.69784       1.168    -0.10671
0.59422      1.1902    -0.11113
0.48842      1.1966    -0.11555
0.38288      1.1867    -0.11997
0.28006       1.161    -0.12439
0.18233        1.12    -0.12881
0.091954      1.0646    -0.13323
0.01102     0.99621    -0.13765
-0.058596     0.91629    -0.14207
-0.11528     0.82675    -0.14647
-0.15772     0.72965    -0.15085
-0.18489     0.62724    -0.15516
-0.19604     0.52177    -0.15948
-0.19067     0.41538    -0.16431
-0.16885     0.30992    -0.17115
-0.13243     0.20688    -0.18205
0.054085    0.074973  -0.0016849
0.11217     0.16648  -0.0081462
0.15551     0.26436   -0.013459
0.18371     0.36689   -0.018243
0.19605     0.47226   -0.022773
0.19223      0.5782   -0.027197
0.17237     0.68231   -0.031604
0.13694      0.7822   -0.036015
0.086756     0.87555   -0.040431
0.022994     0.96022    -0.04485
-0.052873      1.0342   -0.049268
-0.13909      1.0959   -0.053687
-0.23366      1.1437   -0.058106
-0.33439      1.1767   -0.062525
-0.43896       1.194   -0.066944
-0.54494      1.1952   -0.071363
-0.64988      1.1803   -0.075781
-0.75135      1.1497     -0.0802
-0.84701      1.1041   -0.084619
-0.93463      1.0444   -0.089038
-1.0122     0.97221   -0.093457
-1.0779     0.88905   -0.097876
-1.1302     0.79688    -0.10229
-1.168     0.69784    -0.10671
-1.1902     0.59422    -0.11113
-1.1966     0.48842    -0.11555
-1.1867     0.38288    -0.11997
-1.161     0.28006    -0.12439
-1.12     0.18233    -0.12881
-1.0646    0.091954    -0.13323
-0.99621     0.01102    -0.13765
-0.91629   -0.058596    -0.14207
-0.82675    -0.11528    -0.14647
-0.72965    -0.15772    -0.15085
-0.62724    -0.18489    -0.15516
-0.52177    -0.19604    -0.15948
-0.41538    -0.19067    -0.16431
-0.30992    -0.16885    -0.17115
-0.20688    -0.13243    -0.18205
-0.074973    0.054085  -0.0016849
-0.16648     0.11217  -0.0081462
-0.26436     0.15551   -0.013459
-0.36689     0.18371   -0.018243
-0.47226     0.19605   -0.022773
-0.5782     0.19223   -0.027197
-0.68231     0.17237   -0.031604
-0.7822     0.13694   -0.036015
-0.87555    0.086756   -0.040431
-0.96022    0.022994    -0.04485
-1.0342   -0.052873   -0.049268
-1.0959    -0.13909   -0.053687
-1.1437    -0.23366   -0.058106
-1.1767    -0.33439   -0.062525
-1.194    -0.43896   -0.066944
-1.1952    -0.54494   -0.071363
-1.1803    -0.64988   -0.075781
-1.1497    -0.75135     -0.0802
-1.1041    -0.84701   -0.084619
-1.0444    -0.93463   -0.089038
-0.97221     -1.0122   -0.093457
-0.88905     -1.0779   -0.097876
-0.79688     -1.1302    -0.10229
-0.69784      -1.168    -0.10671
-0.59422     -1.1902    -0.11113
-0.48842     -1.1966    -0.11555
-0.38288     -1.1867    -0.11997
-0.28006      -1.161    -0.12439
-0.18233       -1.12    -0.12881
-0.091954     -1.0646    -0.13323
-0.01102    -0.99621    -0.13765
0.058596    -0.91629    -0.14207
0.11528    -0.82675    -0.14647
0.15772    -0.72965    -0.15085
0.18489    -0.62724    -0.15516
0.19604    -0.52177    -0.15948
0.19067    -0.41538    -0.16431
0.16885    -0.30992    -0.17115
0.13243    -0.20688    -0.18205
-0.054085   -0.074973  -0.0016849
-0.11217    -0.16648  -0.0081462
-0.15551    -0.26436   -0.013459
-0.18371    -0.36689   -0.018243
-0.19605    -0.47226   -0.022773
-0.19223     -0.5782   -0.027197
-0.17237    -0.68231   -0.031604
-0.13694     -0.7822   -0.036015
-0.086756    -0.87555   -0.040431
-0.022994    -0.96022    -0.04485
0.052873     -1.0342   -0.049268
0.13909     -1.0959   -0.053687
0.23366     -1.1437   -0.058106
0.33439     -1.1767   -0.062525
0.43896      -1.194   -0.066944
0.54494     -1.1952   -0.071363
0.64988     -1.1803   -0.075781
0.75135     -1.1497     -0.0802
0.84701     -1.1041   -0.084619
0.93463     -1.0444   -0.089038
1.0122    -0.97221   -0.093457
1.0779    -0.88905   -0.097876
1.1302    -0.79688    -0.10229
1.168    -0.69784    -0.10671
1.1902    -0.59422    -0.11113
1.1966    -0.48842    -0.11555
1.1867    -0.38288    -0.11997
1.161    -0.28006    -0.12439
1.12    -0.18233    -0.12881
1.0646   -0.091954    -0.13323
0.99621    -0.01102    -0.13765
0.91629    0.058596    -0.14207
0.82675     0.11528    -0.14647
0.72965     0.15772    -0.15085
0.62724     0.18489    -0.15516
0.52177     0.19604    -0.15948
0.41538     0.19067    -0.16431
0.30992     0.16885    -0.17115
0.20688     0.13243    -0.18205
0  0  0
0  0  0
0  0  0
0  0  0
0  0  0
0  0  0
0  0  0
0  0  0
0  0  0
0.072368   -0.023474   -0.022355
0.15227   -0.041975    -0.03141
0.23606   -0.050411   -0.036629
0.32002    -0.04613   -0.041186
0.40215   -0.029234   -0.045598
0.4807 -5.2966e-05   -0.049999
0.55389    0.040721   -0.054409
0.62004    0.092133   -0.058824
0.67763     0.15299   -0.063243
0.72532     0.22188   -0.067662
0.76201      0.2972   -0.072081
0.78685     0.37722   -0.076499
0.79926     0.46008   -0.080918
0.79896     0.54386   -0.085337
0.78596     0.62663   -0.089756
0.76054     0.70647   -0.094175
0.72331     0.78153   -0.098594
0.67513     0.85007    -0.10301
0.6171     0.91051    -0.10743
0.55058     0.96145    -0.11185
0.4771      1.0017    -0.11627
0.39836      1.0304    -0.12069
0.31619      1.0467    -0.12511
0.23249      1.0504    -0.12953
0.14919      1.0414    -0.13394
0.068226      1.0198    -0.13836
-0.0085312     0.98626    -0.14278
-0.079304     0.94141     -0.1472
-0.14245     0.88635    -0.15162
-0.19652     0.82234    -0.15604
-0.24025     0.75087    -0.16046
-0.27264      0.6736    -0.16488
-0.29294     0.59232    -0.16929
-0.30067     0.50892    -0.17369
-0.29562      0.4253    -0.17806
-0.27774     0.34336    -0.18248
-0.24698     0.26491     -0.1872
-0.20359     0.19156    -0.19299
-0.14981     0.12487    -0.20082
0.071759   0.0091605  -0.0035427
0.14055    0.026346  -0.0085769
0.21051    0.053341   -0.013792
0.27607    0.090432   -0.018388
0.33514     0.13704   -0.022793
0.38636     0.19208   -0.027186
0.42861     0.25425   -0.031595
0.46093     0.32211   -0.036012
0.48258     0.39409    -0.04043
0.49306     0.46852    -0.04485
0.49213     0.54368   -0.049269
0.47981     0.61783   -0.053687
0.45638     0.68925   -0.058106
0.42239     0.75629   -0.062525
0.37862      0.8174   -0.066944
0.32609     0.87116   -0.071363
0.26601     0.91634   -0.075781
0.19977     0.95187     -0.0802
0.12891     0.97695   -0.084619
0.055069     0.99098   -0.089038
-0.02005     0.99365   -0.093457
-0.094705      0.9849   -0.097876
-0.16717     0.96492    -0.10229
-0.23576     0.93418    -0.10671
-0.2989     0.89339    -0.11113
-0.35511      0.8435    -0.11555
-0.40311     0.78565    -0.11997
-0.44178     0.72119    -0.12439
-0.47022     0.65162    -0.12881
-0.48778     0.57853    -0.13323
-0.49405     0.50362    -0.13765
-0.48888     0.42864    -0.14207
-0.47241      0.3553    -0.14649
-0.44501     0.28533     -0.1509
-0.4073     0.22033    -0.15528
-0.36002     0.16187    -0.15954
-0.30394     0.11138    -0.16368
-0.23977    0.070118    -0.16812
-0.16922    0.038099    -0.17484
0.06389    0.045002    0.013818
0.12692    0.098202    0.013854
0.18326     0.16044   0.0092561
0.22994     0.23024   0.0045683
0.26544     0.30623  5.9286e-05
0.28892     0.38668  -0.0043716
0.29988     0.46974  -0.0087864
0.29811     0.55351   -0.013202
0.28365     0.63603   -0.017619
0.25684     0.71541   -0.022038
0.21829     0.78981   -0.026457
0.16891     0.85749   -0.030875
0.10983      0.9169   -0.035294
0.042422     0.96666   -0.039713
-0.031754      1.0056   -0.044132
-0.11098      1.0329   -0.048551
-0.19343      1.0478   -0.052969
-0.27718        1.05   -0.057388
-0.36031      1.0396   -0.061807
-0.44088      1.0166   -0.066226
-0.51704     0.98164   -0.070645
-0.58701     0.93556   -0.075064
-0.64918     0.87939   -0.079482
-0.70212     0.81444   -0.083901
-0.74459     0.74222    -0.08832
-0.77561     0.66439   -0.092739
-0.79446     0.58275   -0.097158
-0.80071      0.4992    -0.10158
-0.79422     0.41567      -0.106
-0.77513     0.33409    -0.11041
-0.74388     0.25634    -0.11483
-0.70121     0.18424    -0.11925
-0.64809     0.11945    -0.12367
-0.58578    0.063471    -0.12808
-0.51568    0.017636    -0.13244
-0.43937   -0.016905    -0.13674
-0.35838   -0.039202    -0.14107
-0.27405   -0.048751    -0.14601
-0.18702   -0.046462    -0.15365
0.023474    0.072368   -0.022355
0.041975     0.15227    -0.03141
0.050411     0.23606   -0.036629
0.04613     0.32002   -0.041186
0.029234     0.40215   -0.045598
5.2966e-05      0.4807   -0.049999
-0.040721     0.55389   -0.054409
-0.092133     0.62004   -0.058824
-0.15299     0.67763   -0.063243
-0.22188     0.72532   -0.067662
-0.2972     0.76201   -0.072081
-0.37722     0.78685   -0.076499
-0.46008     0.79926   -0.080918
-0.54386     0.79896   -0.085337
-0.62663     0.78596   -0.089756
-0.70647     0.76054   -0.094175
-0.78153     0.72331   -0.098594
-0.85007     0.67513    -0.10301
-0.91051      0.6171    -0.10743
-0.96145     0.55058    -0.11185
-1.0017      0.4771    -0.11627
-1.0304     0.39836    -0.12069
-1.0467     0.31619    -0.12511
-1.0504     0.23249    -0.12953
-1.0414     0.14919    -0.13394
-1.0198    0.068226    -0.13836
-0.98626  -0.0085312    -0.14278
-0.94141   -0.079304     -0.1472
-0.88635    -0.14245    -0.15162
-0.82234    -0.19652    -0.15604
-0.75087    -0.24025    -0.16046
-0.6736    -0.27264    -0.16488
-0.59232    -0.29294    -0.16929
-0.50892    -0.30067    -0.17369
-0.4253    -0.29562    -0.17806
-0.34336    -0.27774    -0.18248
-0.26491    -0.24698     -0.1872
-0.19156    -0.20359    -0.19299
-0.12487    -0.14981    -0.20082
-0.0091605    0.071759  -0.0035427
-0.026346     0.14055  -0.0085769
-0.053341     0.21051   -0.013792
-0.090432     0.27607   -0.018388
-0.13704     0.33514   -0.022793
-0.19208     0.38636   -0.027186
-0.25425     0.42861   -0.031595
-0.32211     0.46093   -0.036012
-0.39409     0.48258    -0.04043
-0.46852     0.49306    -0.04485
-0.54368     0.49213   -0.049269
-0.61783     0.47981   -0.053687
-0.68925     0.45638   -0.058106
-0.75629     0.42239   -0.062525
-0.8174     0.37862   -0.066944
-0.87116     0.32609   -0.071363
-0.91634     0.26601   -0.075781
-0.95187     0.19977     -0.0802
-0.97695     0.12891   -0.084619
-0.99098    0.055069   -0.089038
-0.99365    -0.02005   -0.093457
-0.9849   -0.094705   -0.097876
-0.96492    -0.16717    -0.10229
-0.93418    -0.23576    -0.10671
-0.89339     -0.2989    -0.11113
-0.8435    -0.35511    -0.11555
-0.78565    -0.40311    -0.11997
-0.72119    -0.44178    -0.12439
-0.65162    -0.47022    -0.12881
-0.57853    -0.48778    -0.13323
-0.50362    -0.49405    -0.13765
-0.42864    -0.48888    -0.14207
-0.3553    -0.47241    -0.14649
-0.28533    -0.44501     -0.1509
-0.22033     -0.4073    -0.15528
-0.16187    -0.36002    -0.15954
-0.11138    -0.30394    -0.16368
-0.070118    -0.23977    -0.16812
-0.038099    -0.16922    -0.17484
-0.045002     0.06389    0.013818
-0.098202     0.12692    0.013854
-0.16044     0.18326   0.0092561
-0.23024     0.22994   0.0045683
-0.30623     0.26544  5.9286e-05
-0.38668     0.28892  -0.0043716
-0.46974     0.29988  -0.0087864
-0.55351     0.29811   -0.013202
-0.63603     0.28365   -0.017619
-0.71541     0.25684   -0.022038
-0.78981     0.21829   -0.026457
-0.85749     0.16891   -0.030875
-0.9169     0.10983   -0.035294
-0.96666    0.042422   -0.039713
-1.0056   -0.031754   -0.044132
-1.0329    -0.11098   -0.048551
-1.0478    -0.19343   -0.052969
-1.05    -0.27718   -0.057388
-1.0396    -0.36031   -0.061807
-1.0166    -0.44088   -0.066226
-0.98164    -0.51704   -0.070645
-0.93556    -0.58701   -0.075064
-0.87939    -0.64918   -0.079482
-0.81444    -0.70212   -0.083901
-0.74222    -0.74459    -0.08832
-0.66439    -0.77561   -0.092739
-0.58275    -0.79446   -0.097158
-0.4992    -0.80071    -0.10158
-0.41567    -0.79422      -0.106
-0.33409    -0.77513    -0.11041
-0.25634    -0.74388    -0.11483
-0.18424    -0.70121    -0.11925
-0.11945    -0.64809    -0.12367
-0.063471    -0.58578    -0.12808
-0.017636    -0.51568    -0.13244
0.016905    -0.43937    -0.13674
0.039202    -0.35838    -0.14107
0.048751    -0.27405    -0.14601
0.046462    -0.18702    -0.15365
-0.072368    0.023474   -0.022355
-0.15227    0.041975    -0.03141
-0.23606    0.050411   -0.036629
-0.32002     0.04613   -0.041186
-0.40215    0.029234   -0.045598
-0.4807  5.2966e-05   -0.049999
-0.55389   -0.040721   -0.054409
-0.62004   -0.092133   -0.058824
-0.67763    -0.15299   -0.063243
-0.72532    -0.22188   -0.067662
-0.76201     -0.2972   -0.072081
-0.78685    -0.37722   -0.076499
-0.79926    -0.46008   -0.080918
-0.79896    -0.54386   -0.085337
-0.78596    -0.62663   -0.089756
-0.76054    -0.70647   -0.094175
-0.72331    -0.78153   -0.098594
-0.67513    -0.85007    -0.10301
-0.6171    -0.91051    -0.10743
-0.55058    -0.96145    -0.11185
-0.4771     -1.0017    -0.11627
-0.39836     -1.0304    -0.12069
-0.31619     -1.0467    -0.12511
-0.23249     -1.0504    -0.12953
-0.14919     -1.0414    -0.13394
-0.068226     -1.0198    -0.13836
0.0085312    -0.98626    -0.14278
0.079304    -0.94141     -0.1472
0.14245    -0.88635    -0.15162
0.19652    -0.82234    -0.15604
0.24025    -0.75087    -0.16046
0.27264     -0.6736    -0.16488
0.29294    -0.59232    -0.16929
0.30067    -0.50892    -0.17369
0.29562     -0.4253    -0.17806
0.27774    -0.34336    -0.18248
0.24698    -0.26491     -0.1872
0.20359    -0.19156    -0.19299
0.14981    -0.12487    -0.20082
-0.071759  -0.0091605  -0.0035427
-0.14055   -0.026346  -0.0085769
-0.21051   -0.053341   -0.013792
-0.27607   -0.090432   -0.018388
-0.33514    -0.13704   -0.022793
-0.38636    -0.19208   -0.027186
-0.42861    -0.25425   -0.031595
-0.46093    -0.32211   -0.036012
-0.48258    -0.39409    -0.04043
-0.49306    -0.46852    -0.04485
-0.49213    -0.54368   -0.049269
-0.47981    -0.61783   -0.053687
-0.45638    -0.68925   -0.058106
-0.42239    -0.75629   -0.062525
-0.37862     -0.8174   -0.066944
-0.32609    -0.87116   -0.071363
-0.26601    -0.91634   -0.075781
-0.19977    -0.95187     -0.0802
-0.12891    -0.97695   -0.084619
-0.055069    -0.99098   -0.089038
0.02005    -0.99365   -0.093457
0.094705     -0.9849   -0.097876
0.16717    -0.96492    -0.10229
0.23576    -0.93418    -0.10671
0.2989    -0.89339    -0.11113
0.35511     -0.8435    -0.11555
0.40311    -0.78565    -0.11997
0.44178    -0.72119    -0.12439
0.47022    -0.65162    -0.12881
0.48778    -0.57853    -0.13323
0.49405    -0.50362    -0.13765
0.48888    -0.42864    -0.14207
0.47241     -0.3553    -0.14649
0.44501    -0.28533     -0.1509
0.4073    -0.22033    -0.15528
0.36002    -0.16187    -0.15954
0.30394    -0.11138    -0.16368
0.23977   -0.070118    -0.16812
0.16922   -0.038099    -0.17484
-0.06389   -0.045002    0.013818
-0.12692   -0.098202    0.013854
-0.18326    -0.16044   0.0092561
-0.22994    -0.23024   0.0045683
-0.26544    -0.30623  5.9286e-05
-0.28892    -0.38668  -0.0043716
-0.29988    -0.46974  -0.0087864
-0.29811    -0.55351   -0.013202
-0.28365    -0.63603   -0.017619
-0.25684    -0.71541   -0.022038
-0.21829    -0.78981   -0.026457
-0.16891    -0.85749   -0.030875
-0.10983     -0.9169   -0.035294
-0.042422    -0.96666   -0.039713
0.031754     -1.0056   -0.044132
0.11098     -1.0329   -0.048551
0.19343     -1.0478   -0.052969
0.27718       -1.05   -0.057388
0.36031     -1.0396   -0.061807
0.44088     -1.0166   -0.066226
0.51704    -0.98164   -0.070645
0.58701    -0.93556   -0.075064
0.64918    -0.87939   -0.079482
0.70212    -0.81444   -0.083901
0.74459    -0.74222    -0.08832
0.77561    -0.66439   -0.092739
0.79446    -0.58275   -0.097158
0.80071     -0.4992    -0.10158
0.79422    -0.41567      -0.106
0.77513    -0.33409    -0.11041
0.74388    -0.25634    -0.11483
0.70121    -0.18424    -0.11925
0.64809    -0.11945    -0.12367
0.58578   -0.063471    -0.12808
0.51568   -0.017636    -0.13244
0.43937    0.016905    -0.13674
0.35838    0.039202    -0.14107
0.27405    0.048751    -0.14601
0.18702    0.046462    -0.15365
-0.023474   -0.072368   -0.022355
-0.041975    -0.15227    -0.03141
-0.050411    -0.23606   -0.036629
-0.04613    -0.32002   -0.041186
-0.029234    -0.40215   -0.045598
-5.2966e-05     -0.4807   -0.049999
0.040721    -0.55389   -0.054409
0.092133    -0.62004   -0.058824
0.15299    -0.67763   -0.063243
0.22188    -0.72532   -0.067662
0.2972    -0.76201   -0.072081
0.37722    -0.78685   -0.076499
0.46008    -0.79926   -0.080918
0.54386    -0.79896   -0.085337
0.62663    -0.78596   -0.089756
0.70647    -0.76054   -0.094175
0.78153    -0.72331   -0.098594
0.85007    -0.67513    -0.10301
0.91051     -0.6171    -0.10743
0.96145    -0.55058    -0.11185
1.0017     -0.4771    -0.11627
1.0304    -0.39836    -0.12069
1.0467    -0.31619    -0.12511
1.0504    -0.23249    -0.12953
1.0414    -0.14919    -0.13394
1.0198   -0.068226    -0.13836
0.98626   0.0085312    -0.14278
0.94141    0.079304     -0.1472
0.88635     0.14245    -0.15162
0.82234     0.19652    -0.15604
0.75087     0.24025    -0.16046
0.6736     0.27264    -0.16488
0.59232     0.29294    -0.16929
0.50892     0.30067    -0.17369
0.4253     0.29562    -0.17806
0.34336     0.27774    -0.18248
0.26491     0.24698     -0.1872
0.19156     0.20359    -0.19299
0.12487     0.14981    -0.20082
0.0091605   -0.071759  -0.0035427
0.026346    -0.14055  -0.0085769
0.053341    -0.21051   -0.013792
0.090432    -0.27607   -0.018388
0.13704    -0.33514   -0.022793
0.19208    -0.38636   -0.027186
0.25425    -0.42861   -0.031595
0.32211    -0.46093   -0.036012
0.39409    -0.48258    -0.04043
0.46852    -0.49306    -0.04485
0.54368    -0.49213   -0.049269
0.61783    -0.47981   -0.053687
0.68925    -0.45638   -0.058106
0.75629    -0.42239   -0.062525
0.8174    -0.37862   -0.066944
0.87116    -0.32609   -0.071363
0.91634    -0.26601   -0.075781
0.95187    -0.19977     -0.0802
0.97695    -0.12891   -0.084619
0.99098   -0.055069   -0.089038
0.99365     0.02005   -0.093457
0.9849    0.094705   -0.097876
0.96492     0.16717    -0.10229
0.93418     0.23576    -0.10671
0.89339      0.2989    -0.11113
0.8435     0.35511    -0.11555
0.78565     0.40311    -0.11997
0.72119     0.44178    -0.12439
0.65162     0.47022    -0.12881
0.57853     0.48778    -0.13323
0.50362     0.49405    -0.13765
0.42864     0.48888    -0.14207
0.3553     0.47241    -0.14649
0.28533     0.44501     -0.1509
0.22033      0.4073    -0.15528
0.16187     0.36002    -0.15954
0.11138     0.30394    -0.16368
0.070118     0.23977    -0.16812
0.038099     0.16922    -0.17484
0.045002    -0.06389    0.013818
0.098202    -0.12692    0.013854
0.16044    -0.18326   0.0092561
0.23024    -0.22994   0.0045683
0.30623    -0.26544  5.9286e-05
0.38668    -0.28892  -0.0043716