# vtk DataFile Version 3.0
VTK Output
ASCII
DATASET UNSTRUCTURED_GRID

POINTS 1025 float
-0.5        -0.5           0
0.5        -0.5           0
0.5         0.5           0
-0.5         0.5           0
-0.5         -0.5           10
0.5         -0.5           10
0.5          0.5           10
-0.5          0.5           10
-0.25        -0.5           0
-1.3751e-12        -0.5           0
0.25        -0.5           0
0.5       -0.25           0
0.5 -1.3751e-12           0
0.5        0.25           0
0.25         0.5           0
1.3751e-12         0.5           0
-0.25         0.5           0
-0.5        0.25           0
-0.5  1.3751e-12           0
-0.5       -0.25           0
-0.25         -0.5           10
-1.37512e-12         -0.5           10
0.25         -0.5           10
0.5        -0.25           10
0.5 -1.37512e-12           10
0.5         0.25           10
0.25          0.5           10
1.37512e-12          0.5           10
-0.25          0.5           10
-0.5         0.25           10
-0.5  1.37512e-12           10
-0.5        -0.25           10
-0.5        -0.5        0.25
-0.5        -0.5         0.5
-0.5        -0.5        0.75
-0.5        -0.5           1
-0.5        -0.5        1.25
-0.5        -0.5         1.5
-0.5        -0.5        1.75
-0.5        -0.5           2
-0.5        -0.5        2.25
-0.5        -0.5         2.5
-0.5        -0.5        2.75
-0.5        -0.5           3
-0.5        -0.5        3.25
-0.5        -0.5         3.5
-0.5        -0.5        3.75
-0.5        -0.5           4
-0.5        -0.5        4.25
-0.5        -0.5         4.5
-0.5        -0.5        4.75
-0.5        -0.5           5
-0.5        -0.5        5.25
-0.5        -0.5         5.5
-0.5        -0.5        5.75
-0.5        -0.5           6
-0.5        -0.5        6.25
-0.5        -0.5         6.5
-0.5        -0.5        6.75
-0.5        -0.5           7
-0.5        -0.5        7.25
-0.5        -0.5         7.5
-0.5        -0.5        7.75
-0.5        -0.5           8
-0.5        -0.5        8.25
-0.5        -0.5         8.5
-0.5        -0.5        8.75
-0.5        -0.5           9
-0.5        -0.5        9.25
-0.5        -0.5         9.5
-0.5        -0.5        9.75
0.5        -0.5        0.25
0.5        -0.5         0.5
0.5        -0.5        0.75
0.5        -0.5           1
0.5        -0.5        1.25
0.5        -0.5         1.5
0.5        -0.5        1.75
0.5        -0.5           2
0.5        -0.5        2.25
0.5        -0.5         2.5
0.5        -0.5        2.75
0.5        -0.5           3
0.5        -0.5        3.25
0.5        -0.5         3.5
0.5        -0.5        3.75
0.5        -0.5           4
0.5        -0.5        4.25
0.5        -0.5         4.5
0.5        -0.5        4.75
0.5        -0.5           5
0.5        -0.5        5.25
0.5        -0.5         5.5
0.5        -0.5        5.75
0.5        -0.5           6
0.5        -0.5        6.25
0.5        -0.5         6.5
0.5        -0.5        6.75
0.5        -0.5           7
0.5        -0.5        7.25
0.5        -0.5         7.5
0.5        -0.5        7.75
0.5        -0.5           8
0.5        -0.5        8.25
0.5        -0.5         8.5
0.5        -0.5        8.75
0.5        -0.5           9
0.5        -0.5        9.25
0.5        -0.5         9.5
0.5        -0.5        9.75
0.5         0.5        0.25
0.5         0.5         0.5
0.5         0.5        0.75
0.5         0.5           1
0.5         0.5        1.25
0.5         0.5         1.5
0.5         0.5        1.75
0.5         0.5           2
0.5         0.5        2.25
0.5         0.5         2.5
0.5         0.5        2.75
0.5         0.5           3
0.5         0.5        3.25
0.5         0.5         3.5
0.5         0.5        3.75
0.5         0.5           4
0.5         0.5        4.25
0.5         0.5         4.5
0.5         0.5        4.75
0.5         0.5           5
0.5         0.5        5.25
0.5         0.5         5.5
0.5         0.5        5.75
0.5         0.5           6
0.5         0.5        6.25
0.5         0.5         6.5
0.5         0.5        6.75
0.5         0.5           7
0.5         0.5        7.25
0.5         0.5         7.5
0.5         0.5        7.75
0.5         0.5           8
0.5         0.5        8.25
0.5         0.5         8.5
0.5         0.5        8.75
0.5         0.5           9
0.5         0.5        9.25
0.5         0.5         9.5
0.5         0.5        9.75
-0.5         0.5        0.25
-0.5         0.5         0.5
-0.5         0.5        0.75
-0.5         0.5           1
-0.5         0.5        1.25
-0.5         0.5         1.5
-0.5         0.5        1.75
-0.5         0.5           2
-0.5         0.5        2.25
-0.5         0.5         2.5
-0.5         0.5        2.75
-0.5         0.5           3
-0.5         0.5        3.25
-0.5         0.5         3.5
-0.5         0.5        3.75
-0.5         0.5           4
-0.5         0.5        4.25
-0.5         0.5         4.5
-0.5         0.5        4.75
-0.5         0.5           5
-0.5         0.5        5.25
-0.5         0.5         5.5
-0.5         0.5        5.75
-0.5         0.5           6
-0.5         0.5        6.25
-0.5         0.5         6.5
-0.5         0.5        6.75
-0.5         0.5           7
-0.5         0.5        7.25
-0.5         0.5         7.5
-0.5         0.5        7.75
-0.5         0.5           8
-0.5         0.5        8.25
-0.5         0.5         8.5
-0.5         0.5        8.75
-0.5         0.5           9
-0.5         0.5        9.25
-0.5         0.5         9.5
-0.5         0.5        9.75
-0.25       -0.25           0
-0.25  6.8756e-13           0
-0.25        0.25           0
-6.8756e-13       -0.25           0
-3.7821e-24           0           0
6.8756e-13        0.25           0
0.25       -0.25           0
0.25 -6.8756e-13           0
0.25        0.25           0
-0.25        -0.5        0.25
-0.25        -0.5         0.5
-0.25        -0.5        0.75
-0.25        -0.5           1
-0.25        -0.5        1.25
-0.25        -0.5         1.5
-0.25        -0.5        1.75
-0.25        -0.5           2
-0.25        -0.5        2.25
-0.25        -0.5         2.5
-0.25        -0.5        2.75
-0.25        -0.5           3
-0.25        -0.5        3.25
-0.25        -0.5         3.5
-0.25        -0.5        3.75
-0.25        -0.5           4
-0.25        -0.5        4.25
-0.25        -0.5         4.5
-0.25        -0.5        4.75
-0.25        -0.5           5
-0.25        -0.5        5.25
-0.25        -0.5         5.5
-0.25        -0.5        5.75
-0.25        -0.5           6
-0.25        -0.5        6.25
-0.25        -0.5         6.5
-0.25        -0.5        6.75
-0.25        -0.5           7
-0.25        -0.5        7.25
-0.25        -0.5         7.5
-0.25        -0.5        7.75
-0.25        -0.5           8
-0.25        -0.5        8.25
-0.25        -0.5         8.5
-0.25        -0.5        8.75
-0.25        -0.5           9
-0.25        -0.5        9.25
-0.25        -0.5         9.5
-0.25        -0.5        9.75
-1.3751e-12        -0.5        0.25
-1.3751e-12        -0.5         0.5
-1.3751e-12        -0.5        0.75
-1.3751e-12        -0.5           1
-1.3751e-12        -0.5        1.25
-1.3751e-12        -0.5         1.5
-1.3751e-12        -0.5        1.75
-1.3751e-12        -0.5           2
-1.3751e-12        -0.5        2.25
-1.3751e-12        -0.5         2.5
-1.3751e-12        -0.5        2.75
-1.3751e-12        -0.5           3
-1.3751e-12        -0.5        3.25
-1.3751e-12        -0.5         3.5
-1.3751e-12        -0.5        3.75
-1.3751e-12        -0.5           4
-1.3751e-12        -0.5        4.25
-1.3751e-12        -0.5         4.5
-1.3751e-12        -0.5        4.75
-1.3751e-12        -0.5           5
-1.3751e-12        -0.5        5.25
-1.3751e-12        -0.5         5.5
-1.3751e-12        -0.5        5.75
-1.3751e-12        -0.5           6
-1.3751e-12        -0.5        6.25
-1.3751e-12        -0.5         6.5
-1.3751e-12        -0.5        6.75
-1.3751e-12        -0.5           7
-1.3751e-12        -0.5        7.25
-1.3751e-12        -0.5         7.5
-1.3751e-12        -0.5        7.75
-1.3751e-12        -0.5           8
-1.3751e-12        -0.5        8.25
-1.3751e-12        -0.5         8.5
-1.3751e-12        -0.5        8.75
-1.3751e-12        -0.5           9
-1.3751e-12        -0.5        9.25
-1.3751e-12        -0.5         9.5
-1.3751e-12        -0.5        9.75
0.25        -0.5        0.25
0.25        -0.5         0.5
0.25        -0.5        0.75
0.25        -0.5           1
0.25        -0.5        1.25
0.25        -0.5         1.5
0.25        -0.5        1.75
0.25        -0.5           2
0.25        -0.5        2.25
0.25        -0.5         2.5
0.25        -0.5        2.75
0.25        -0.5           3
0.25        -0.5        3.25
0.25        -0.5         3.5
0.25        -0.5        3.75
0.25        -0.5           4
0.25        -0.5        4.25
0.25        -0.5         4.5
0.25        -0.5        4.75
0.25        -0.5           5
0.25        -0.5        5.25
0.25        -0.5         5.5
0.25        -0.5        5.75
0.25        -0.5           6
0.25        -0.5        6.25
0.25        -0.5         6.5
0.25        -0.5        6.75
0.25        -0.5           7
0.25        -0.5        7.25
0.25        -0.5         7.5
0.25        -0.5        7.75
0.25        -0.5           8
0.25        -0.5        8.25
0.25        -0.5         8.5
0.25        -0.5        8.75
0.25        -0.5           9
0.25        -0.5        9.25
0.25        -0.5         9.5
0.25        -0.5        9.75
0.5       -0.25        0.25
0.5       -0.25         0.5
0.5       -0.25        0.75
0.5       -0.25           1
0.5       -0.25        1.25
0.5       -0.25         1.5
0.5       -0.25        1.75
0.5       -0.25           2
0.5       -0.25        2.25
0.5       -0.25         2.5
0.5       -0.25        2.75
0.5       -0.25           3
0.5       -0.25        3.25
0.5       -0.25         3.5
0.5       -0.25        3.75
0.5       -0.25           4
0.5       -0.25        4.25
[...]
POINT_DATA 1025
VECTORS displacement double
0  0  0
0  0  0
0  0  0
0  0  0
0.89285      1.0879   -0.060577
-1.0879     0.89285   -0.060577
-0.89285     -1.0879   -0.060577
1.0879    -0.89285   -0.060577
0  0  0
0  0  0
0  0  0
0  0  0
0  0  0
0  0  0
0  0  0
0  0  0
0  0  0
0  0  0
0  0  0
0  0  0
0.39765      1.0392   -0.070638
-0.097545     0.99039   -0.057005
-0.59274     0.94162   -0.045155
-1.0392     0.39765   -0.070638
-0.99039   -0.097545   -0.057005
-0.94162    -0.59274   -0.045155
-0.39765     -1.0392   -0.070638
0.097545    -0.99039   -0.057005
0.59274    -0.94162   -0.045155
1.0392    -0.39765   -0.070638
0.99039    0.097545   -0.057005
0.94162     0.59274   -0.045155
0.039564   -0.033112 -0.00055867
0.087308   -0.070526  -0.0026107
0.1369    -0.10312   -0.004199
0.18859    -0.13135   -0.005646
0.24239    -0.15516  -0.0070364
0.29798    -0.17439  -0.0084008
0.35499     -0.1889  -0.0097602
0.41301     -0.1986    -0.01112
0.47164    -0.20343   -0.012481
0.53046    -0.20334   -0.013843
0.58907    -0.19834   -0.015204
0.64707    -0.18846   -0.016566
0.70403    -0.17378   -0.017928
0.75957     -0.1544   -0.019289
0.81329    -0.13044   -0.020651
0.86483    -0.10209   -0.022013
0.91383   -0.069525   -0.023374
0.95993   -0.032989   -0.024736
1.0028   0.0072697   -0.026097
1.0422    0.050968   -0.027459
1.0778    0.097802   -0.028821
1.1094     0.14744   -0.030182
1.1367     0.19955   -0.031544
1.1595     0.25375   -0.032906
1.1778     0.30967   -0.034267
1.1913     0.36692   -0.035629
1.2      0.4251    -0.03699
1.2038      0.4838   -0.038352
1.2027     0.54261   -0.039714
1.1967     0.60113   -0.041075
1.1858     0.65894   -0.042437
1.1702     0.71564   -0.043798
1.1498     0.77084   -0.045157
1.1249     0.82414   -0.046509
1.0957     0.87517   -0.047849
1.0622     0.92358   -0.049197
1.0247     0.96902   -0.050676
0.98348      1.0113   -0.052683
0.93902      1.0506   -0.055799
0.033112    0.039564 -0.00055867
0.070526    0.087308  -0.0026107
0.10312      0.1369   -0.004199
0.13135     0.18859   -0.005646
0.15516     0.24239  -0.0070364
0.17439     0.29798  -0.0084008
0.1889     0.35499  -0.0097602
0.1986     0.41301    -0.01112
0.20343     0.47164   -0.012481
0.20334     0.53046   -0.013843
0.19834     0.58907   -0.015204
0.18846     0.64707   -0.016566
0.17378     0.70403   -0.017928
0.1544     0.75957   -0.019289
0.13044     0.81329   -0.020651
0.10209     0.86483   -0.022013
0.069525     0.91383   -0.023374
0.032989     0.95993   -0.024736
-0.0072697      1.0028   -0.026097
-0.050968      1.0422   -0.027459
-0.097802      1.0778   -0.028821
-0.14744      1.1094   -0.030182
-0.19955      1.1367   -0.031544
-0.25375      1.1595   -0.032906
-0.30967      1.1778   -0.034267
-0.36692      1.1913   -0.035629
-0.4251         1.2    -0.03699
-0.4838      1.2038   -0.038352
-0.54261      1.2027   -0.039714
-0.60113      1.1967   -0.041075
-0.65894      1.1858   -0.042437
-0.71564      1.1702   -0.043798
-0.77084      1.1498   -0.045157
-0.82414      1.1249   -0.046509
-0.87517      1.0957   -0.047849
-0.92358      1.0622   -0.049197
-0.96902      1.0247   -0.050676
-1.0113     0.98348   -0.052683
-1.0506     0.93902   -0.055799
-0.039564    0.033112 -0.00055867
-0.087308    0.070526  -0.0026107
-0.1369     0.10312   -0.004199
-0.18859     0.13135   -0.005646
-0.24239     0.15516  -0.0070364
-0.29798     0.17439  -0.0084008
-0.35499      0.1889  -0.0097602
-0.41301      0.1986    -0.01112
-0.47164     0.20343   -0.012481
-0.53046     0.20334   -0.013843
-0.58907     0.19834   -0.015204
-0.64707     0.18846   -0.016566
-0.70403     0.17378   -0.017928
-0.75957      0.1544   -0.019289
-0.81329     0.13044   -0.020651
-0.86483     0.10209   -0.022013
-0.91383    0.069525   -0.023374
-0.95993    0.032989   -0.024736
-1.0028  -0.0072697   -0.026097
-1.0422   -0.050968   -0.027459
-1.0778   -0.097802   -0.028821
-1.1094    -0.14744   -0.030182
-1.1367    -0.19955   -0.031544
-1.1595    -0.25375   -0.032906
-1.1778    -0.30967   -0.034267
-1.1913    -0.36692   -0.035629
-1.2     -0.4251    -0.03699
-1.2038     -0.4838   -0.038352
-1.2027    -0.54261   -0.039714
-1.1967    -0.60113   -0.041075
-1.1858    -0.65894   -0.042437
-1.1702    -0.71564   -0.043798
-1.1498    -0.77084   -0.045157
-1.1249    -0.82414   -0.046509
-1.0957    -0.87517   -0.047849
-1.0622    -0.92358   -0.049197
-1.0247    -0.96902   -0.050676
-0.98348     -1.0113   -0.052683
-0.93902     -1.0506   -0.055799
-0.033112   -0.039564 -0.00055867
-0.070526   -0.087308  -0.0026107
-0.10312     -0.1369   -0.004199
-0.13135    -0.18859   -0.005646
-0.15516    -0.24239  -0.0070364
-0.17439    -0.29798  -0.0084008
-0.1889    -0.35499  -0.0097602
-0.1986    -0.41301    -0.01112
-0.20343    -0.47164   -0.012481
-0.20334    -0.53046   -0.013843
-0.19834    -0.58907   -0.015204
-0.18846    -0.64707   -0.016566
-0.17378    -0.70403   -0.017928
-0.1544    -0.75957   -0.019289
-0.13044    -0.81329   -0.020651
-0.10209    -0.86483   -0.022013
-0.069525    -0.91383   -0.023374
-0.032989    -0.95993   -0.024736
0.0072697     -1.0028   -0.026097
0.050968     -1.0422   -0.027459
0.097802     -1.0778   -0.028821
0.14744     -1.1094   -0.030182
0.19955     -1.1367   -0.031544
0.25375     -1.1595   -0.032906
0.30967     -1.1778   -0.034267
0.36692     -1.1913   -0.035629
0.4251        -1.2    -0.03699
0.4838     -1.2038   -0.038352
0.54261     -1.2027   -0.039714
0.60113     -1.1967   -0.041075
0.65894     -1.1858   -0.042437
0.71564     -1.1702   -0.043798
0.77084     -1.1498   -0.045157
0.82414     -1.1249   -0.046509
0.87517     -1.0957   -0.047849
0.92358     -1.0622   -0.049197
0.96902     -1.0247   -0.050676
1.0113    -0.98348   -0.052683
1.0506    -0.93902   -0.055799
0  0  0
0  0  0
0  0  0
0  0  0
0  0  0
0  0  0
0  0  0
0  0  0
0  0  0
0.0399   -0.015937   -0.011431
0.083069   -0.030854   -0.015255
0.1281   -0.042986   -0.016835
0.17392   -0.051273    -0.01821
0.22022   -0.055718   -0.019569
0.26672   -0.056272   -0.020928
0.31311   -0.052936   -0.022288
0.35905   -0.045738   -0.023649
0.40423   -0.034728    -0.02501
0.44833   -0.019986   -0.026372
0.49105  -0.0016125   -0.027734
0.53209    0.020263   -0.029095
0.57115    0.045488   -0.030457
0.60798    0.073887   -0.031818
0.6423     0.10526    -0.03318
0.67389     0.13939   -0.034542
0.70251     0.17604   -0.035903
0.72798     0.21495   -0.037265
0.75011     0.25585   -0.038627
0.76875     0.29845   -0.039988
0.78376     0.34246    -0.04135
0.79505     0.38757   -0.042711
0.80253     0.43347   -0.044073
0.80616     0.47983   -0.045435
0.8059     0.52633   -0.046796
0.80176     0.57265   -0.048158
0.79377     0.61846    -0.04952
0.78198     0.66345   -0.050881
0.76648     0.70729   -0.052243
0.74737     0.74968   -0.053604
0.72479     0.79034   -0.054966
0.69889     0.82896   -0.056328
0.66987     0.86529   -0.057688
0.63791     0.89907   -0.059046
0.60323     0.93005   -0.060399
0.56604     0.95801   -0.061758
0.52653     0.98271   -0.063178
0.48488       1.004   -0.064843
0.4417      1.0219   -0.067093
0.040659    0.002888  -0.0011704
0.079502   0.0081876  -0.0026997
0.12008    0.016571  -0.0042816
0.16008     0.02826  -0.0056866
0.19893    0.043257  -0.0070427
0.23637    0.061454  -0.0083986
0.27216    0.082717  -0.0097583
0.30605     0.10689    -0.01112
0.3378     0.13382   -0.012481
0.36719      0.1633   -0.013843
0.39402     0.19513   -0.015204
0.41809     0.22909   -0.016566
0.43925     0.26494   -0.017928
0.45734     0.30243   -0.019289
0.47224      0.3413   -0.020651
0.48384     0.38128   -0.022013
0.49206     0.42209   -0.023374
0.49685     0.46344   -0.024736
0.49817     0.50505   -0.026097
0.49601     0.54662   -0.027459
0.49038     0.58787   -0.028821
0.48134      0.6285   -0.030182
0.46893     0.66824   -0.031544
0.45324      0.7068   -0.032906
0.4344     0.74392   -0.034267
0.41252     0.77933   -0.035629
0.38776      0.8128    -0.03699
0.36029     0.84408   -0.038352
0.33031     0.87295   -0.039714
0.29802     0.89923   -0.041075
0.26365     0.92271   -0.042437
0.22744     0.94325   -0.043799
0.18964     0.96069   -0.045161
0.15052     0.97491   -0.046522
0.11034     0.98582   -0.047875
0.069385     0.99329   -0.049205
0.027892     0.99723     -0.0505
-0.01391     0.99752   -0.051844
-0.055796     0.99452   -0.053762
0.037274    0.022664   0.0086995
0.075287    0.048312   0.0097421
0.11179    0.077194   0.0083269
0.14587     0.10888   0.0068786
0.17717      0.1433   0.0054943
0.20547     0.18021   0.0041309
0.23058     0.21935   0.0027702
0.25233     0.26045   0.0014093
0.27058     0.30322   4.787e-05
0.28519     0.34737  -0.0013137
0.29606     0.39258  -0.0026753
0.30312     0.43855  -0.0040369
0.30632     0.48494  -0.0053986
0.30564     0.53144  -0.0067602
0.30107     0.57771  -0.0081218
0.29266     0.62345  -0.0094834
0.28046     0.66832   -0.010845
0.26456     0.71202   -0.012207
0.24506     0.75424   -0.013568
0.2221     0.79468    -0.01493
0.19585     0.83307   -0.016292
0.16649     0.86913   -0.017653
0.13422     0.90261   -0.019015
0.099267     0.93328   -0.020376
0.061875     0.96093   -0.021738
0.022305     0.98536     -0.0231
-0.019166      1.0064   -0.024461
-0.062248      1.0239   -0.025823
-0.10664      1.0377   -0.027184
-0.15204      1.0478   -0.028546
-0.19811      1.0541   -0.029908
-0.24456      1.0565    -0.03127
-0.29103       1.055   -0.032631
-0.33722      1.0496   -0.033989
-0.3828      1.0404   -0.035339
-0.42744      1.0274   -0.036681
-0.47082      1.0106   -0.038043
-0.51272     0.99017   -0.039577
-0.55331     0.96635    -0.04178
0.015937      0.0399   -0.011431
0.030854    0.083069   -0.015255
0.042986      0.1281   -0.016835
0.051273     0.17392    -0.01821
0.055718     0.22022   -0.019569
0.056272     0.26672   -0.020928
0.052936     0.31311   -0.022288
0.045738     0.35905   -0.023649
0.034728     0.40423    -0.02501
0.019986     0.44833   -0.026372
0.0016125     0.49105   -0.027734
-0.020263     0.53209   -0.029095
-0.045488     0.57115   -0.030457
-0.073887     0.60798   -0.031818
-0.10526      0.6423    -0.03318
-0.13939     0.67389   -0.034542
-0.17604     0.70251   -0.035903
-0.21495     0.72798   -0.037265
-0.25585     0.75011   -0.038627
-0.29845     0.76875   -0.039988
-0.34246     0.78376    -0.04135
-0.38757     0.79505   -0.042711
-0.43347     0.80253   -0.044073
-0.47983     0.80616   -0.045435
-0.52633      0.8059   -0.046796
-0.57265     0.80176   -0.048158
-0.61846     0.79377    -0.04952
-0.66345     0.78198   -0.050881
-0.70729     0.76648   -0.052243
-0.74968     0.74737   -0.053604
-0.79034     0.72479   -0.054966
-0.82896     0.69889   -0.056328
-0.86529     0.66987   -0.057688
-0.89907     0.63791   -0.059046
-0.93005     0.60323   -0.060399
-0.95801     0.56604   -0.061758
-0.98271     0.52653   -0.063178
-1.004     0.48488   -0.064843
-1.0219      0.4417   -0.067093
-0.002888    0.040659  -0.0011704
-0.0081876    0.079502  -0.0026997
-0.016571     0.12008  -0.0042816
-0.02826     0.16008  -0.0056866
-0.043257     0.19893  -0.0070427
-0.061454     0.23637  -0.0083986
-0.082717     0.27216  -0.0097583
-0.10689     0.30605    -0.01112
-0.13382      0.3378   -0.012481
-0.1633     0.36719   -0.013843
-0.19513     0.39402   -0.015204
-0.22909     0.41809   -0.016566
-0.26494     0.43925   -0.017928
-0.30243     0.45734   -0.019289
-0.3413     0.47224   -0.020651
-0.38128     0.48384   -0.022013
-0.42209     0.49206   -0.023374
-0.46344     0.49685   -0.024736
-0.50505     0.49817   -0.026097
-0.54662     0.49601   -0.027459
-0.58787     0.49038   -0.028821
-0.6285     0.48134   -0.030182
-0.66824     0.46893   -0.031544
-0.7068     0.45324   -0.032906
-0.74392      0.4344   -0.034267
-0.77933     0.41252   -0.035629
-0.8128     0.38776    -0.03699
-0.84408     0.36029   -0.038352
-0.87295     0.33031   -0.039714
-0.89923     0.29802   -0.041075
-0.92271     0.26365   -0.042437
-0.94325     0.22744   -0.043799
-0.96069     0.18964   -0.045161
-0.97491     0.15052   -0.046522
-0.98582     0.11034   -0.047875
-0.99329    0.069385   -0.049205
-0.99723    0.027892     -0.0505
-0.99752    -0.01391   -0.051844
-0.99452   -0.055796   -0.053762
-0.022664    0.037274   0.0086995
-0.048312    0.075287   0.0097421
-0.077194     0.11179   0.0083269
-0.10888     0.14587   0.0068786
-0.1433     0.17717   0.0054943
-0.18021     0.20547   0.0041309
-0.21935     0.23058   0.0027702
-0.26045     0.25233   0.0014093
-0.30322     0.27058   4.787e-05
-0.34737     0.28519  -0.0013137
-0.39258     0.29606  -0.0026753
-0.43855     0.30312  -0.0040369
-0.48494     0.30632  -0.0053986
-0.53144     0.30564  -0.0067602
-0.57771     0.30107  -0.0081218
-0.62345     0.29266  -0.0094834
-0.66832     0.28046   -0.010845
-0.71202     0.26456   -0.012207
-0.75424     0.24506   -0.013568
-0.79468      0.2221    -0.01493
-0.83307     0.19585   -0.016292
-0.86913     0.16649   -0.017653
-0.90261     0.13422   -0.019015
-0.93328    0.099267   -0.020376
-0.96093    0.061875   -0.021738
-0.98536    0.022305     -0.0231
-1.0064   -0.019166   -0.024461
-1.0239   -0.062248   -0.025823
-1.0377    -0.10664   -0.027184
-1.0478    -0.15204   -0.028546
-1.0541    -0.19811   -0.029908
-1.0565    -0.24456    -0.03127
-1.055    -0.29103   -0.032631
-1.0496    -0.33722   -0.033989
-1.0404     -0.3828   -0.035339
-1.0274    -0.42744   -0.036681
-1.0106    -0.47082   -0.038043
-0.99017    -0.51272   -0.039577
-0.96635    -0.55331    -0.04178
-0.0399    0.015937   -0.011431
-0.083069    0.030854   -0.015255
-0.1281    0.042986   -0.016835
-0.17392    0.051273    -0.01821
-0.22022    0.055718   -0.019569
-0.26672    0.056272   -0.020928
-0.31311    0.052936   -0.022288
-0.35905    0.045738   -0.023649
-0.40423    0.034728    -0.02501
-0.44833    0.019986   -0.026372
-0.49105   0.0016125   -0.027734
-0.53209   -0.020263   -0.029095
-0.57115   -0.045488   -0.030457
-0.60798   -0.073887   -0.031818
-0.6423    -0.10526    -0.03318
-0.67389    -0.13939   -0.034542
-0.70251    -0.17604   -0.035903
-0.72798    -0.21495   -0.037265
-0.75011    -0.25585   -0.038627
-0.76875    -0.29845   -0.039988
-0.78376    -0.34246    -0.04135
-0.79505    -0.38757   -0.042711
-0.80253    -0.43347   -0.044073
-0.80616    -0.47983   -0.045435
-0.8059    -0.52633   -0.046796
-0.80176    -0.57265   -0.048158
-0.79377    -0.61846    -0.04952
-0.78198    -0.66345   -0.050881
-0.76648    -0.70729   -0.052243
-0.74737    -0.74968   -0.053604
-0.72479    -0.79034   -0.054966
-0.69889    -0.82896   -0.056328
-0.66987    -0.86529   -0.057688
-0.63791    -0.89907   -0.059046
-0.60323    -0.93005   -0.060399
-0.56604    -0.95801   -0.061758
-0.52653    -0.98271   -0.063178
-0.48488      -1.004   -0.064843
-0.4417     -1.0219   -0.067093
-0.040659   -0.002888  -0.0011704
-0.079502  -0.0081876  -0.0026997
-0.12008   -0.016571  -0.0042816
-0.16008    -0.02826  -0.0056866
-0.19893   -0.043257  -0.0070427
-0.23637   -0.061454  -0.0083986
-0.27216   -0.082717  -0.0097583
-0.30605    -0.10689    -0.01112
-0.3378    -0.13382   -0.012481
-0.36719     -0.1633   -0.013843
-0.39402    -0.19513   -0.015204
-0.41809    -0.22909   -0.016566
-0.43925    -0.26494   -0.017928
-0.45734    -0.30243   -0.019289
-0.47224     -0.3413   -0.020651
-0.48384    -0.38128   -0.022013
-0.49206    -0.42209   -0.023374
-0.49685    -0.46344   -0.024736
-0.49817    -0.50505   -0.026097
-0.49601    -0.54662   -0.027459
-0.49038    -0.58787   -0.028821
-0.48134     -0.6285   -0.030182
-0.46893    -0.66824   -0.031544
-0.45324     -0.7068   -0.032906
-0.4344    -0.74392   -0.034267
-0.41252    -0.77933   -0.035629
-0.38776     -0.8128    -0.03699
-0.36029    -0.84408   -0.038352
-0.33031    -0.87295   -0.039714
-0.29802    -0.89923   -0.041075
-0.26365    -0.92271   -0.042437
-0.22744    -0.94325   -0.043799
-0.18964    -0.96069   -0.045161
-0.15052    -0.97491   -0.046522
-0.11034    -0.98582   -0.047875
-0.069385    -0.99329   -0.049205
-0.027892    -0.99723     -0.0505
0.01391    -0.99752   -0.051844
0.055796    -0.99452   -0.053762
-0.037274   -0.022664   0.0086995
-0.075287   -0.048312   0.0097421
-0.11179   -0.077194   0.0083269
-0.14587    -0.10888   0.0068786
-0.17717     -0.1433   0.0054943
-0.20547    -0.18021   0.0041309
-0.23058    -0.21935   0.0027702
-0.25233    -0.26045   0.0014093
-0.27058    -0.30322   4.787e-05
-0.28519    -0.34737  -0.0013137
-0.29606    -0.39258  -0.0026753
-0.30312    -0.43855  -0.0040369
-0.30632    -0.48494  -0.0053986
-0.30564    -0.53144  -0.0067602
-0.30107    -0.57771  -0.0081218
-0.29266    -0.62345  -0.0094834
-0.28046    -0.66832   -0.010845
-0.26456    -0.71202   -0.012207
-0.24506    -0.75424   -0.013568
-0.2221    -0.79468    -0.01493
-0.19585    -0.83307   -0.016292
-0.16649    -0.86913   -0.017653
-0.13422    -0.90261   -0.019015
-0.099267    -0.93328   -0.020376
-0.061875    -0.96093   -0.021738
-0.022305    -0.98536     -0.0231
0.019166     -1.0064   -0.024461
0.062248     -1.0239   -0.025823
0.10664     -1.0377   -0.027184
0.15204     -1.0478   -0.028546
0.19811     -1.0541   -0.029908
0.24456     -1.0565    -0.03127
0.29103      -1.055   -0.032631
0.33722     -1.0496   -0.033989
0.3828     -1.0404   -0.035339
0.42744     -1.0274   -0.036681
0.47082     -1.0106   -0.038043
0.51272    -0.99017   -0.039577
0.55331    -0.96635    -0.04178
-0.015937     -0.0399   -0.011431
-0.030854   -0.083069   -0.015255
-0.042986     -0.1281   -0.016835
-0.051273    -0.17392    -0.01821
-0.055718    -0.22022   -0.019569
-0.056272    -0.26672   -0.020928
-0.052936    -0.31311   -0.022288
-0.045738    -0.35905   -0.023649
-0.034728    -0.40423    -0.02501
-0.019986    -0.44833   -0.026372
-0.0016125    -0.49105   -0.027734
0.020263    -0.53209   -0.029095
0.045488    -0.57115   -0.030457
0.073887    -0.60798   -0.031818
0.10526     -0.6423    -0.03318
0.13939    -0.67389   -0.034542
0.17604    -0.70251   -0.035903
0.21495    -0.72798   -0.037265
0.25585    -0.75011   -0.038627
0.29845    -0.76875   -0.039988
0.34246    -0.78376    -0.04135
0.38757    -0.79505   -0.042711
0.43347    -0.80253   -0.044073
0.47983    -0.80616   -0.045435
0.52633     -0.8059   -0.046796
0.57265    -0.80176   -0.048158
0.61846    -0.79377    -0.04952
0.66345    -0.78198   -0.050881
0.70729    -0.76648   -0.052243
0.74968    -0.74737   -0.053604
0.79034    -0.72479   -0.054966
0.82896    -0.69889   -0.056328
0.86529    -0.66987   -0.057688
0.89907    -0.63791   -0.059046
0.93005    -0.60323   -0.060399
0.95801    -0.56604   -0.061758
0.98271    -0.52653   -0.063178
1.004    -0.48488   -0.064843
1.0219     -0.4417   -0.067093
0.002888   -0.040659  -0.0011704
0.0081876   -0.079502  -0.0026997
0.016571    -0.12008  -0.0042816
0.02826    -0.16008  -0.0056866
0.043257    -0.19893  -0.0070427
0.061454    -0.23637  -0.0083986
0.082717    -0.27216  -0.0097583
0.10689    -0.30605    -0.01112
0.13382     -0.3378   -0.012481
0.1633    -0.36719   -0.013843
0.19513    -0.39402   -0.015204
0.22909    -0.41809   -0.016566
0.26494    -0.43925   -0.017928
0.30243    -0.45734   -0.019289
0.3413    -0.47224   -0.020651
0.38128    -0.48384   -0.022013
0.42209    -0.49206   -0.023374
0.46344    -0.49685   -0.024736
0.50505    -0.49817   -0.026097
0.54662    -0.49601   -0.027459
0.58787    -0.49038   -0.028821
0.6285    -0.48134   -0.030182
0.66824    -0.46893   -0.031544
0.7068    -0.45324   -0.032906
0.74392     -0.4344   -0.034267
0.77933    -0.41252   -0.035629
0.8128    -0.38776    -0.03699
0.84408    -0.36029   -0.038352
0.87295    -0.33031   -0.039714
0.89923    -0.29802   -0.041075
0.92271    -0.26365   -0.042437
0.94325    -0.22744   -0.043799
0.96069    -0.18964   -0.045161
0.97491    -0.15052   -0.046522
0.98582    -0.11034   -0.047875
0.99329   -0.069385   -0.049205
0.99723   -0.027892     -0.0505
0.99752     0.01391   -0.051844
0.99452    0.055796   -0.053762
0.022664   -0.037274   0.0086995
0.048312   -0.075287   0.0097421
0.077194    -0.11179   0.0083269
0.10888    -0.14587   0.0068786
0.1433    -0.17717   0.0054943
0.18021    -0.20547   0.0041309