# vtk DataFile Version 3.0
VTK Output
ASCII
DATASET UNSTRUCTURED_GRID

POINTS 1025 float
-0.5        -0.5           0
0.5        -0.5           0
0.5         0.5           0
-0.5         0.5           0
-0.5         -0.5           10
0.5         -0.5           10
0.5          0.5           10
-0.5          0.5           10
-0.25        -0.5           0
-1.3751e-12        -0.5           0
0.25        -0.5           0
0.5       -0.25           0
0.5 -1.3751e-12           0
0.5        0.25           0
0.25         0.5           0
1.3751e-12         0.5           0
-0.25         0.5           0
-0.5        0.25           0
-0.5  1.3751e-12           0
-0.5       -0.25           0
-0.25         -0.5           10
-1.37512e-12         -0.5           10
0.25         -0.5           10
0.5        -0.25           10
0.5 -1.37512e-12           10
0.5         0.25           10
0.25          0.5           10
1.37512e-12          0.5           10
-0.25          0.5           10
-0.5         0.25           10
-0.5  1.37512e-12           10
-0.5        -0.25           10
-0.5        -0.5        0.25
-0.5        -0.5         0.5
-0.5        -0.5        0.75
-0.5        -0.5           1
-0.5        -0.5        1.25
-0.5        -0.5         1.5
-0.5        -0.5        1.75
-0.5        -0.5           2
-0.5        -0.5        2.25
-0.5        -0.5         2.5
-0.5        -0.5        2.75
-0.5        -0.5           3
-0.5        -0.5        3.25
-0.5        -0.5         3.5
-0.5        -0.5        3.75
-0.5        -0.5           4
-0.5        -0.5        4.25
-0.5        -0.5         4.5
-0.5        -0.5        4.75
-0.5        -0.5           5
-0.5        -0.5        5.25
-0.5        -0.5         5.5
-0.5        -0.5        5.75
-0.5        -0.5           6
-0.5        -0.5        6.25
-0.5        -0.5         6.5
-0.5        -0.5        6.75
-0.5        -0.5           7
-0.5        -0.5        7.25
-0.5        -0.5         7.5
-0.5        -0.5        7.75
-0.5        -0.5           8
-0.5        -0.5        8.25
-0.5        -0.5         8.5
-0.5        -0.5        8.75
-0.5        -0.5           9
-0.5        -0.5        9.25
-0.5        -0.5         9.5
-0.5        -0.5        9.75
0.5        -0.5        0.25
0.5        -0.5         0.5
0.5        -0.5        0.75
0.5        -0.5           1
0.5        -0.5        1.25
0.5        -0.5         1.5
0.5        -0.5        1.75
0.5        -0.5           2
0.5        -0.5        2.25
0.5        -0.5         2.5
0.5        -0.5        2.75
0.5        -0.5           3
0.5        -0.5        3.25
0.5        -0.5         3.5
0.5        -0.5        3.75
0.5        -0.5           4
0.5        -0.5        4.25
0.5        -0.5         4.5
0.5        -0.5        4.75
0.5        -0.5           5
0.5        -0.5        5.25
0.5        -0.5         5.5
0.5        -0.5        5.75
0.5        -0.5           6
0.5        -0.5        6.25
0.5        -0.5         6.5
0.5        -0.5        6.75
0.5        -0.5           7
0.5        -0.5        7.25
0.5        -0.5         7.5
0.5        -0.5        7.75
0.5        -0.5           8
0.5        -0.5        8.25
0.5        -0.5         8.5
0.5        -0.5        8.75
0.5        -0.5           9
0.5        -0.5        9.25
0.5        -0.5         9.5
0.5        -0.5        9.75
0.5         0.5        0.25
0.5         0.5         0.5
0.5         0.5        0.75
0.5         0.5           1
0.5         0.5        1.25
0.5         0.5         1.5
0.5         0.5        1.75
0.5         0.5           2
0.5         0.5        2.25
0.5         0.5         2.5
0.5         0.5        2.75
0.5         0.5           3
0.5         0.5        3.25
0.5         0.5         3.5
0.5         0.5        3.75
0.5         0.5           4
0.5         0.5        4.25
0.5         0.5         4.5
0.5         0.5        4.75
0.5         0.5           5
0.5         0.5        5.25
0.5         0.5         5.5
0.5         0.5        5.75
0.5         0.5           6
0.5         0.5        6.25
0.5         0.5         6.5
0.5         0.5        6.75
0.5         0.5           7
0.5         0.5        7.25
0.5         0.5         7.5
0.5         0.5        7.75
0.5         0.5           8
0.5         0.5        8.25
0.5         0.5         8.5
0.5         0.5        8.75
0.5         0.5           9
0.5         0.5        9.25
0.5         0.5         9.5
0.5         0.5        9.75
-0.5         0.5        0.25
-0.5         0.5         0.5
-0.5         0.5        0.75
-0.5         0.5           1
-0.5         0.5        1.25
-0.5         0.5         1.5
-0.5         0.5        1.75
-0.5         0.5           2
-0.5         0.5        2.25
-0.5         0.5         2.5
-0.5         0.5        2.75
-0.5         0.5           3
-0.5         0.5        3.25
-0.5         0.5         3.5
-0.5         0.5        3.75
-0.5         0.5           4
-0.5         0.5        4.25
-0.5         0.5         4.5
-0.5         0.5        4.75
-0.5         0.5           5
-0.5         0.5        5.25
-0.5         0.5         5.5
-0.5         0.5        5.75
-0.5         0.5           6
-0.5         0.5        6.25
-0.5         0.5         6.5
-0.5         0.5        6.75
-0.5         0.5           7
-0.5         0.5        7.25
-0.5         0.5         7.5
-0.5         0.5        7.75
-0.5         0.5           8
-0.5         0.5        8.25
-0.5         0.5         8.5
-0.5         0.5        8.75
-0.5         0.5           9
-0.5         0.5        9.25
-0.5         0.5         9.5
-0.5         0.5        9.75
-0.25       -0.25           0
-0.25  6.8756e-13           0
-0.25        0.25           0
-6.8756e-13       -0.25           0
-3.7821e-24           0           0
6.8756e-13        0.25           0
0.25       -0.25           0
0.25 -6.8756e-13           0
0.25        0.25           0
-0.25        -0.5        0.25
-0.25        -0.5         0.5
-0.25        -0.5        0.75
-0.25        -0.5           1
-0.25        -0.5        1.25
-0.25        -0.5         1.5
-0.25        -0.5        1.75
-0.25        -0.5           2
-0.25        -0.5        2.25
-0.25        -0.5         2.5
-0.25        -0.5        2.75
-0.25        -0.5           3
-0.25        -0.5        3.25
-0.25        -0.5         3.5
-0.25        -0.5        3.75
-0.25        -0.5           4
-0.25        -0.5        4.25
-0.25        -0.5         4.5
-0.25        -0.5        4.75
-0.25        -0.5           5
-0.25        -0.5        5.25
-0.25        -0.5         5.5
-0.25        -0.5        5.75
-0.25        -0.5           6
-0.25        -0.5        6.25
-0.25        -0.5         6.5
-0.25        -0.5        6.75
-0.25        -0.5           7
-0.25        -0.5        7.25
-0.25        -0.5         7.5
-0.25        -0.5        7.75
-0.25        -0.5           8
-0.25        -0.5        8.25
-0.25        -0.5         8.5
-0.25        -0.5        8.75
-0.25        -0.5           9
-0.25        -0.5        9.25
-0.25        -0.5         9.5
-0.25        -0.5        9.75
-1.3751e-12        -0.5        0.25
-1.3751e-12        -0.5         0.5
-1.3751e-12        -0.5        0.75
-1.3751e-12        -0.5           1
-1.3751e-12        -0.5        1.25
-1.3751e-12        -0.5         1.5
-1.3751e-12        -0.5        1.75
-1.3751e-12        -0.5           2
-1.3751e-12        -0.5        2.25
-1.3751e-12        -0.5         2.5
-1.3751e-12        -0.5        2.75
-1.3751e-12        -0.5           3
-1.3751e-12        -0.5        3.25
-1.3751e-12        -0.5         3.5
-1.3751e-12        -0.5        3.75
-1.3751e-12        -0.5           4
-1.3751e-12        -0.5        4.25
-1.3751e-12        -0.5         4.5
-1.3751e-12        -0.5        4.75
-1.3751e-12        -0.5           5
-1.3751e-12        -0.5        5.25
-1.3751e-12        -0.5         5.5
-1.3751e-12        -0.5        5.75
-1.3751e-12        -0.5           6
-1.3751e-12        -0.5        6.25
-1.3751e-12        -0.5         6.5
-1.3751e-12        -0.5        6.75
-1.3751e-12        -0.5           7
-1.3751e-12        -0.5        7.25
-1.3751e-12        -0.5         7.5
-1.3751e-12        -0.5        7.75
-1.3751e-12        -0.5           8
-1.3751e-12        -0.5        8.25
-1.3751e-12        -0.5         8.5
-1.3751e-12        -0.5        8.75
-1.3751e-12        -0.5           9
-1.3751e-12        -0.5        9.25
-1.3751e-12        -0.5         9.5
-1.3751e-12        -0.5        9.75
0.25        -0.5        0.25
0.25        -0.5         0.5
0.25        -0.5        0.75
0.25        -0.5           1
0.25        -0.5        1.25
0.25        -0.5         1.5
0.25        -0.5        1.75
0.25        -0.5           2
0.25        -0.5        2.25
0.25        -0.5         2.5
0.25        -0.5        2.75
0.25        -0.5           3
0.25        -0.5        3.25
0.25        -0.5         3.5
0.25        -0.5        3.75
0.25        -0.5           4
0.25        -0.5        4.25
0.25        -0.5         4.5
0.25        -0.5        4.75
0.25        -0.5           5
0.25        -0.5        5.25
0.25        -0.5         5.5
0.25        -0.5        5.75
0.25        -0.5           6
0.25        -0.5        6.25
0.25        -0.5         6.5
0.25        -0.5        6.75
0.25        -0.5           7
0.25        -0.5        7.25
0.25        -0.5         7.5
0.25        -0.5        7.75
0.25        -0.5           8
0.25        -0.5        8.25
0.25        -0.5         8.5
0.25        -0.5        8.75
0.25        -0.5           9
0.25        -0.5        9.25
0.25        -0.5         9.5
0.25        -0.5        9.75
0.5       -0.25        0.25
0.5       -0.25         0.5
0.5       -0.25        0.75
0.5       -0.25           1
0.5       -0.25        1.25
0.5       -0.25         1.5
0.5       -0.25        1.75
0.5       -0.25           2
0.5       -0.25        2.25
0.5       -0.25         2.5
0.5       -0.25        2.75
0.5       -0.25           3
0.5       -0.25        3.25
0.5       -0.25         3.5
0.5       -0.25        3.75
0.5       -0.25           4
0.5       -0.25        4.25
[...]
POINT_DATA 1025
VECTORS displacement double
0  0  0
0  0  0
0  0  0
0  0  0
-6.5226e-16           1    -0.61968
-1 -6.5226e-16    -0.61968
3.1919e-16          -1    -0.61968
1  6.6613e-16    -0.61968
0  0  0
0  0  0
0  0  0
0  0  0
0  0  0
0  0  0
0  0  0
0  0  0
0  0  0
0  0  0
0  0  0
0  0  0
-0.25        0.75    -0.62997
-0.5         0.5    -0.57523
-0.75        0.25    -0.53786
-0.75       -0.25    -0.62997
-0.5        -0.5    -0.57523
-0.25       -0.75    -0.53786
0.25       -0.75    -0.62997
0.5        -0.5    -0.57523
0.75       -0.25    -0.53786
0.75        0.25    -0.62997
0.5         0.5    -0.57523
0.25        0.75    -0.53786
0.13767   -0.075547  -0.0035539
0.30714    -0.14546   -0.021165
0.49135    -0.17097   -0.038506
0.67553    -0.14765   -0.054011
0.84547   -0.075846   -0.067974
0.98879    0.039062   -0.081239
1.0953     0.18838   -0.094378
1.1574     0.36095    -0.10757
1.1705     0.54392    -0.12082
1.1336     0.72363    -0.13409
1.0495     0.88668    -0.14736
0.92443      1.0209    -0.16064
0.76771      1.1163    -0.17391
0.59103      1.1657    -0.18718
0.40756      1.1655    -0.20045
0.23099      1.1157    -0.21372
0.07447        1.02    -0.22699
-0.050323     0.88552    -0.24026
-0.13409     0.72229    -0.25353
-0.17058     0.54249     -0.2668
-0.15707     0.35952    -0.28007
-0.094581     0.18703    -0.29334
0.012239    0.037866    -0.30661
0.15542   -0.076841    -0.31988
0.3243    -0.14854    -0.33315
0.50627    -0.17189    -0.34643
0.68778    -0.14515    -0.35969
0.85528   -0.070308    -0.37296
0.9963    0.047058    -0.38624
1.1003      0.1982    -0.39952
1.1596     0.37185    -0.41282
1.1697     0.55503    -0.42613
1.13     0.73402    -0.43934
1.0436      0.8954    -0.45222
0.91676      1.0271    -0.46454
0.75747      1.1188    -0.47683
0.57419      1.1619     -0.4922
0.37713      1.1501    -0.51833
0.18182      1.0861    -0.56137
0.075547     0.13767  -0.0035539
0.14546     0.30714   -0.021165
0.17097     0.49135   -0.038506
0.14765     0.67553   -0.054011
0.075846     0.84547   -0.067974
-0.039062     0.98879   -0.081239
-0.18838      1.0953   -0.094378
-0.36095      1.1574    -0.10757
-0.54392      1.1705    -0.12082
-0.72363      1.1336    -0.13409
-0.88668      1.0495    -0.14736
-1.0209     0.92443    -0.16064
-1.1163     0.76771    -0.17391
-1.1657     0.59103    -0.18718
-1.1655     0.40756    -0.20045
-1.1157     0.23099    -0.21372
-1.02     0.07447    -0.22699
-0.88552   -0.050323    -0.24026
-0.72229    -0.13409    -0.25353
-0.54249    -0.17058     -0.2668
-0.35952    -0.15707    -0.28007
-0.18703   -0.094581    -0.29334
-0.037866    0.012239    -0.30661
0.076841     0.15542    -0.31988
0.14854      0.3243    -0.33315
0.17189     0.50627    -0.34643
0.14515     0.68778    -0.35969
0.070308     0.85528    -0.37296
-0.047058      0.9963    -0.38624
-0.1982      1.1003    -0.39952
-0.37185      1.1596    -0.41282
-0.55503      1.1697    -0.42613
-0.73402        1.13    -0.43934
-0.8954      1.0436    -0.45222
-1.0271     0.91676    -0.46454
-1.1188     0.75747    -0.47683
-1.1619     0.57419     -0.4922
-1.1501     0.37713    -0.51833
-1.0861     0.18182    -0.56137
-0.13767    0.075547  -0.0035539
-0.30714     0.14546   -0.021165
-0.49135     0.17097   -0.038506
-0.67553     0.14765   -0.054011
-0.84547    0.075846   -0.067974
-0.98879   -0.039062   -0.081239
-1.0953    -0.18838   -0.094378
-1.1574    -0.36095    -0.10757
-1.1705    -0.54392    -0.12082
-1.1336    -0.72363    -0.13409
-1.0495    -0.88668    -0.14736
-0.92443     -1.0209    -0.16064
-0.76771     -1.1163    -0.17391
-0.59103     -1.1657    -0.18718
-0.40756     -1.1655    -0.20045
-0.23099     -1.1157    -0.21372
-0.07447       -1.02    -0.22699
0.050323    -0.88552    -0.24026
0.13409    -0.72229    -0.25353
0.17058    -0.54249     -0.2668
0.15707    -0.35952    -0.28007
0.094581    -0.18703    -0.29334
-0.012239   -0.037866    -0.30661
-0.15542    0.076841    -0.31988
-0.3243     0.14854    -0.33315
-0.50627     0.17189    -0.34643
-0.68778     0.14515    -0.35969
-0.85528    0.070308    -0.37296
-0.9963   -0.047058    -0.38624
-1.1003     -0.1982    -0.39952
-1.1596    -0.37185    -0.41282
-1.1697    -0.55503    -0.42613
-1.13    -0.73402    -0.43934
-1.0436     -0.8954    -0.45222
-0.91676     -1.0271    -0.46454
-0.75747     -1.1188    -0.47683
-0.57419     -1.1619     -0.4922
-0.37713     -1.1501    -0.51833
-0.18182     -1.0861    -0.56137
-0.075547    -0.13767  -0.0035539
-0.14546    -0.30714   -0.021165
-0.17097    -0.49135   -0.038506
-0.14765    -0.67553   -0.054011
-0.075846    -0.84547   -0.067974
0.039062    -0.98879   -0.081239
0.18838     -1.0953   -0.094378
0.36095     -1.1574    -0.10757
0.54392     -1.1705    -0.12082
0.72363     -1.1336    -0.13409
0.88668     -1.0495    -0.14736
1.0209    -0.92443    -0.16064
1.1163    -0.76771    -0.17391
1.1657    -0.59103    -0.18718
1.1655    -0.40756    -0.20045
1.1157    -0.23099    -0.21372
1.02    -0.07447    -0.22699
0.88552    0.050323    -0.24026
0.72229     0.13409    -0.25353
0.54249     0.17058     -0.2668
0.35952     0.15707    -0.28007
0.18703    0.094581    -0.29334
0.037866   -0.012239    -0.30661
-0.076841    -0.15542    -0.31988
-0.14854     -0.3243    -0.33315
-0.17189    -0.50627    -0.34643
-0.14515    -0.68778    -0.35969
-0.070308    -0.85528    -0.37296
0.047058     -0.9963    -0.38624
0.1982     -1.1003    -0.39952
0.37185     -1.1596    -0.41282
0.55503     -1.1697    -0.42613
0.73402       -1.13    -0.43934
0.8954     -1.0436    -0.45222
1.0271    -0.91676    -0.46454
1.1188    -0.75747    -0.47683
1.1619    -0.57419     -0.4922
1.1501    -0.37713    -0.51833
1.0861    -0.18182    -0.56137
0  0  0
0  0  0
0  0  0
0  0  0
0  0  0
0  0  0
0  0  0
0  0  0
0  0  0
0.12318   -0.025876   -0.042327
0.26431   -0.032402   -0.064955
0.40921  -0.0065006   -0.081703
0.54204    0.056484   -0.095996
0.65201     0.15232    -0.10929
0.73135     0.27403     -0.1224
0.77459     0.41257    -0.13557
0.77869     0.55766    -0.14881
0.74338     0.69849    -0.16208
0.67129     0.82454    -0.17536
0.5678     0.92639    -0.18863
0.44062     0.99646     -0.2019
0.29922      1.0295    -0.21517
0.15416      1.0231    -0.22844
0.016242     0.97767    -0.24171
-0.10425     0.89663    -0.25499
-0.19833     0.78603    -0.26826
-0.25898      0.6541    -0.28153
-0.28169     0.51068     -0.2948
-0.26476     0.36646    -0.30807
-0.20945      0.2322    -0.32134
-0.11989     0.11791    -0.33461
-0.0027499    0.032101    -0.34788
0.13323   -0.018823    -0.36115
0.27792   -0.031067    -0.37442
0.42053  -0.0037181    -0.38769
0.55042    0.061185    -0.40096
0.65792      0.1588    -0.41423
0.735     0.28187    -0.42751
0.77591      0.4212    -0.44079
0.77762     0.56641    -0.45407
0.74003     0.70666    -0.46734
0.66607     0.83151    -0.48054
0.56135     0.93169    -0.49356
0.43351     0.99965    -0.50641
0.29119      1.0293    -0.51971
0.14355      1.0149    -0.53569
0.0010145     0.95271    -0.55878
-0.12296      0.8535     -0.5878
0.11624    0.025334  -0.0078969
0.22917    0.076612   -0.023372
0.33532     0.15644   -0.040354
0.41719     0.26112   -0.054819
0.46701      0.3834   -0.068088
0.48137     0.51416   -0.081148
0.45965     0.64378     -0.0943
0.40364     0.76269    -0.10754
0.31754     0.86205    -0.12081
0.20778     0.93444    -0.13409
0.082517     0.97444    -0.14736
-0.048893     0.97908    -0.16064
-0.17666       0.948    -0.17391
-0.29125     0.88351    -0.18718
-0.38413     0.79044    -0.20045
-0.44837     0.67571    -0.21372
-0.47918     0.54788    -0.22699
-0.47427     0.41648    -0.24026
-0.434     0.29131    -0.25353
-0.36137     0.18169     -0.2668
-0.2618    0.095813    -0.28007
-0.14272    0.040065    -0.29334
-0.012988    0.018607    -0.30661
0.11771    0.033039    -0.31988
0.23963    0.082284    -0.33316
0.34368     0.16267    -0.34643
0.42212     0.26821     -0.3597
0.46908     0.39103    -0.37296
0.48106     0.52197    -0.38623
0.45718     0.65128    -0.39951
0.3992     0.76932    -0.41279
0.31148     0.86729    -0.42611
0.20063     0.93791    -0.43945
0.075052     0.97601    -0.45266
-0.055865     0.97874    -0.46536
-0.18259     0.94515    -0.47704
-0.29593     0.87515    -0.48805
-0.38789     0.76868    -0.50341
-0.4505      0.6333    -0.53188
0.098138    0.087426    0.019965
0.18721     0.19706    0.015857
0.25146     0.32849   0.0020167
0.27995     0.47233   -0.012567
0.26825     0.61773   -0.026449
0.2173     0.75386   -0.039842
0.13129     0.87081   -0.053076
0.016813     0.96007   -0.066305
-0.11756      1.0151   -0.079557
-0.2618      1.0317   -0.092824
-0.40517      1.0087     -0.1061
-0.53698     0.94772    -0.11937
-0.64739     0.85341    -0.13264
-0.72817     0.73274    -0.14591
-0.7733     0.59473    -0.15918
-0.77941     0.44965    -0.17245
-0.74606     0.30833    -0.18572
-0.67572      0.1813    -0.19899
-0.57365    0.078023    -0.21226
-0.44744     0.00621    -0.22553
-0.30652   -0.028789    -0.23881
-0.16138   -0.024364    -0.25208
-0.022846    0.019154    -0.26535
0.09875    0.098521    -0.27862
0.19435     0.20782    -0.29189
0.25681      0.3389    -0.30516
0.2815     0.48199    -0.31843
0.26655     0.62643     -0.3317
0.21309     0.76144    -0.34497
0.1251     0.87696    -0.35824
0.009142     0.96439    -0.37153
-0.12613      1.0172    -0.38483
-0.27056      1.0315    -0.39814
-0.41327      1.0064    -0.41133
-0.54352     0.94358    -0.42412
-0.65146     0.84701    -0.43626
-0.72873     0.72123    -0.44852
-0.76865     0.57097    -0.46461
-0.76965      0.4029    -0.49597
0.025876     0.12318   -0.042327
0.032402     0.26431   -0.064955
0.0065006     0.40921   -0.081703
-0.056484     0.54204   -0.095996
-0.15232     0.65201    -0.10929
-0.27403     0.73135     -0.1224
-0.41257     0.77459    -0.13557
-0.55766     0.77869    -0.14881
-0.69849     0.74338    -0.16208
-0.82454     0.67129    -0.17536
-0.92639      0.5678    -0.18863
-0.99646     0.44062     -0.2019
-1.0295     0.29922    -0.21517
-1.0231     0.15416    -0.22844
-0.97767    0.016242    -0.24171
-0.89663    -0.10425    -0.25499
-0.78603    -0.19833    -0.26826
-0.6541    -0.25898    -0.28153
-0.51068    -0.28169     -0.2948
-0.36646    -0.26476    -0.30807
-0.2322    -0.20945    -0.32134
-0.11791    -0.11989    -0.33461
-0.032101  -0.0027499    -0.34788
0.018823     0.13323    -0.36115
0.031067     0.27792    -0.37442
0.0037181     0.42053    -0.38769
-0.061185     0.55042    -0.40096
-0.1588     0.65792    -0.41423
-0.28187       0.735    -0.42751
-0.4212     0.77591    -0.44079
-0.56641     0.77762    -0.45407
-0.70666     0.74003    -0.46734
-0.83151     0.66607    -0.48054
-0.93169     0.56135    -0.49356
-0.99965     0.43351    -0.50641
-1.0293     0.29119    -0.51971
-1.0149     0.14355    -0.53569
-0.95271   0.0010145    -0.55878
-0.8535    -0.12296     -0.5878
-0.025334     0.11624  -0.0078969
-0.076612     0.22917   -0.023372
-0.15644     0.33532   -0.040354
-0.26112     0.41719   -0.054819
-0.3834     0.46701   -0.068088
-0.51416     0.48137   -0.081148
-0.64378     0.45965     -0.0943
-0.76269     0.40364    -0.10754
-0.86205     0.31754    -0.12081
-0.93444     0.20778    -0.13409
-0.97444    0.082517    -0.14736
-0.97908   -0.048893    -0.16064
-0.948    -0.17666    -0.17391
-0.88351    -0.29125    -0.18718
-0.79044    -0.38413    -0.20045
-0.67571    -0.44837    -0.21372
-0.54788    -0.47918    -0.22699
-0.41648    -0.47427    -0.24026
-0.29131      -0.434    -0.25353
-0.18169    -0.36137     -0.2668
-0.095813     -0.2618    -0.28007
-0.040065    -0.14272    -0.29334
-0.018607   -0.012988    -0.30661
-0.033039     0.11771    -0.31988
-0.082284     0.23963    -0.33316
-0.16267     0.34368    -0.34643
-0.26821     0.42212     -0.3597
-0.39103     0.46908    -0.37296
-0.52197     0.48106    -0.38623
-0.65128     0.45718    -0.39951
-0.76932      0.3992    -0.41279
-0.86729     0.31148    -0.42611
-0.93791     0.20063    -0.43945
-0.97601    0.075052    -0.45266
-0.97874   -0.055865    -0.46536
-0.94515    -0.18259    -0.47704
-0.87515    -0.29593    -0.48805
-0.76868    -0.38789    -0.50341
-0.6333     -0.4505    -0.53188
-0.087426    0.098138    0.019965
-0.19706     0.18721    0.015857
-0.32849     0.25146   0.0020167
-0.47233     0.27995   -0.012567
-0.61773     0.26825   -0.026449
-0.75386      0.2173   -0.039842
-0.87081     0.13129   -0.053076
-0.96007    0.016813   -0.066305
-1.0151    -0.11756   -0.079557
-1.0317     -0.2618   -0.092824
-1.0087    -0.40517     -0.1061
-0.94772    -0.53698    -0.11937
-0.85341    -0.64739    -0.13264
-0.73274    -0.72817    -0.14591
-0.59473     -0.7733    -0.15918
-0.44965    -0.77941    -0.17245
-0.30833    -0.74606    -0.18572
-0.1813    -0.67572    -0.19899
-0.078023    -0.57365    -0.21226
-0.00621    -0.44744    -0.22553
0.028789    -0.30652    -0.23881
0.024364    -0.16138    -0.25208
-0.019154   -0.022846    -0.26535
-0.098521     0.09875    -0.27862
-0.20782     0.19435    -0.29189
-0.3389     0.25681    -0.30516
-0.48199      0.2815    -0.31843
-0.62643     0.26655     -0.3317
-0.76144     0.21309    -0.34497
-0.87696      0.1251    -0.35824
-0.96439    0.009142    -0.37153
-1.0172    -0.12613    -0.38483
-1.0315    -0.27056    -0.39814
-1.0064    -0.41327    -0.41133
-0.94358    -0.54352    -0.42412
-0.84701    -0.65146    -0.43626
-0.72123    -0.72873    -0.44852
-0.57097    -0.76865    -0.46461
-0.4029    -0.76965    -0.49597
-0.12318    0.025876   -0.042327
-0.26431    0.032402   -0.064955
-0.40921   0.0065006   -0.081703
-0.54204   -0.056484   -0.095996
-0.65201    -0.15232    -0.10929
-0.73135    -0.27403     -0.1224
-0.77459    -0.41257    -0.13557
-0.77869    -0.55766    -0.14881
-0.74338    -0.69849    -0.16208
-0.67129    -0.82454    -0.17536
-0.5678    -0.92639    -0.18863
-0.44062    -0.99646     -0.2019
-0.29922     -1.0295    -0.21517
-0.15416     -1.0231    -0.22844
-0.016242    -0.97767    -0.24171
0.10425    -0.89663    -0.25499
0.19833    -0.78603    -0.26826
0.25898     -0.6541    -0.28153
0.28169    -0.51068     -0.2948
0.26476    -0.36646    -0.30807
0.20945     -0.2322    -0.32134
0.11989    -0.11791    -0.33461
0.0027499   -0.032101    -0.34788
-0.13323    0.018823    -0.36115
-0.27792    0.031067    -0.37442
-0.42053   0.0037181    -0.38769
-0.55042   -0.061185    -0.40096
-0.65792     -0.1588    -0.41423
-0.735    -0.28187    -0.42751
-0.77591     -0.4212    -0.44079
-0.77762    -0.56641    -0.45407
-0.74003    -0.70666    -0.46734
-0.66607    -0.83151    -0.48054
-0.56135    -0.93169    -0.49356
-0.43351    -0.99965    -0.50641
-0.29119     -1.0293    -0.51971
-0.14355     -1.0149    -0.53569
-0.0010145    -0.95271    -0.55878
0.12296     -0.8535     -0.5878
-0.11624   -0.025334  -0.0078969
-0.22917   -0.076612   -0.023372
-0.33532    -0.15644   -0.040354
-0.41719    -0.26112   -0.054819
-0.46701     -0.3834   -0.068088
-0.48137    -0.51416   -0.081148
-0.45965    -0.64378     -0.0943
-0.40364    -0.76269    -0.10754
-0.31754    -0.86205    -0.12081
-0.20778    -0.93444    -0.13409
-0.082517    -0.97444    -0.14736
0.048893    -0.97908    -0.16064
0.17666      -0.948    -0.17391
0.29125    -0.88351    -0.18718
0.38413    -0.79044    -0.20045
0.44837    -0.67571    -0.21372
0.47918    -0.54788    -0.22699
0.47427    -0.41648    -0.24026
0.434    -0.29131    -0.25353
0.36137    -0.18169     -0.2668
0.2618   -0.095813    -0.28007
0.14272   -0.040065    -0.29334
0.012988   -0.018607    -0.30661
-0.11771   -0.033039    -0.31988
-0.23963   -0.082284    -0.33316
-0.34368    -0.16267    -0.34643
-0.42212    -0.26821     -0.3597
-0.46908    -0.39103    -0.37296
-0.48106    -0.52197    -0.38623
-0.45718    -0.65128    -0.39951
-0.3992    -0.76932    -0.41279
-0.31148    -0.86729    -0.42611
-0.20063    -0.93791    -0.43945
-0.075052    -0.97601    -0.45266
0.055865    -0.97874    -0.46536
0.18259    -0.94515    -0.47704
0.29593    -0.87515    -0.48805
0.38789    -0.76868    -0.50341
0.4505     -0.6333    -0.53188
-0.098138   -0.087426    0.019965
-0.18721    -0.19706    0.015857
-0.25146    -0.32849   0.0020167
-0.27995    -0.47233   -0.012567
-0.26825    -0.61773   -0.026449
-0.2173    -0.75386   -0.039842
-0.13129    -0.87081   -0.053076
-0.016813    -0.96007   -0.066305
0.11756     -1.0151   -0.079557
0.2618     -1.0317   -0.092824
0.40517     -1.0087     -0.1061
0.53698    -0.94772    -0.11937
0.64739    -0.85341    -0.13264
0.72817    -0.73274    -0.14591
0.7733    -0.59473    -0.15918
0.77941    -0.44965    -0.17245
0.74606    -0.30833    -0.18572
0.67572     -0.1813    -0.19899
0.57365   -0.078023    -0.21226
0.44744    -0.00621    -0.22553
0.30652    0.028789    -0.23881
0.16138    0.024364    -0.25208
0.022846   -0.019154    -0.26535
-0.09875   -0.098521    -0.27862
-0.19435    -0.20782    -0.29189
-0.25681     -0.3389    -0.30516
-0.2815    -0.48199    -0.31843
-0.26655    -0.62643     -0.3317
-0.21309    -0.76144    -0.34497
-0.1251    -0.87696    -0.35824
-0.009142    -0.96439    -0.37153
0.12613     -1.0172    -0.38483
0.27056     -1.0315    -0.39814
0.41327     -1.0064    -0.41133
0.54352    -0.94358    -0.42412
0.65146    -0.84701    -0.43626
0.72873    -0.72123    -0.44852
0.76865    -0.57097    -0.46461
0.76965     -0.4029    -0.49597
-0.025876    -0.12318   -0.042327
-0.032402    -0.26431   -0.064955
-0.0065006    -0.40921   -0.081703
0.056484    -0.54204   -0.095996
0.15232    -0.65201    -0.10929
0.27403    -0.73135     -0.1224
0.41257    -0.77459    -0.13557
0.55766    -0.77869    -0.14881
0.69849    -0.74338    -0.16208
0.82454    -0.67129    -0.17536
0.92639     -0.5678    -0.18863
0.99646    -0.44062     -0.2019
1.0295    -0.29922    -0.21517
1.0231    -0.15416    -0.22844
0.97767   -0.016242    -0.24171
0.89663     0.10425    -0.25499
0.78603     0.19833    -0.26826
0.6541     0.25898    -0.28153
0.51068     0.28169     -0.2948
0.36646     0.26476    -0.30807
0.2322     0.20945    -0.32134
0.11791     0.11989    -0.33461
0.032101   0.0027499    -0.34788
-0.018823    -0.13323    -0.36115
-0.031067    -0.27792    -0.37442
-0.0037181    -0.42053    -0.38769
0.061185    -0.55042    -0.40096
0.1588    -0.65792    -0.41423
0.28187      -0.735    -0.42751
0.4212    -0.77591    -0.44079
0.56641    -0.77762    -0.45407
0.70666    -0.74003    -0.46734
0.83151    -0.66607    -0.48054
0.93169    -0.56135    -0.49356
0.99965    -0.43351    -0.50641
1.0293    -0.29119    -0.51971
1.0149    -0.14355    -0.53569
0.95271  -0.0010145    -0.55878
0.8535     0.12296     -0.5878
0.025334    -0.11624  -0.0078969
0.076612    -0.22917   -0.023372
0.15644    -0.33532   -0.040354
0.26112    -0.41719   -0.054819
0.3834    -0.46701   -0.068088
0.51416    -0.48137   -0.081148
0.64378    -0.45965     -0.0943
0.76269    -0.40364    -0.10754
0.86205    -0.31754    -0.12081
0.93444    -0.20778    -0.13409
0.97444   -0.082517    -0.14736
0.97908    0.048893    -0.16064
0.948     0.17666    -0.17391
0.88351     0.29125    -0.18718
0.79044     0.38413    -0.20045
0.67571     0.44837    -0.21372
0.54788     0.47918    -0.22699
0.41648     0.47427    -0.24026
0.29131       0.434    -0.25353
0.18169     0.36137     -0.2668
0.095813      0.2618    -0.28007
0.040065     0.14272    -0.29334
0.018607    0.012988    -0.30661
0.033039    -0.11771    -0.31988
0.082284    -0.23963    -0.33316
0.16267    -0.34368    -0.34643
0.26821    -0.42212     -0.3597
0.39103    -0.46908    -0.37296
0.52197    -0.48106    -0.38623
0.65128    -0.45718    -0.39951
0.76932     -0.3992    -0.41279
0.86729    -0.31148    -0.42611
0.93791    -0.20063    -0.43945
0.97601   -0.075052    -0.45266
0.97874    0.055865    -0.46536
0.94515     0.18259    -0.47704
0.87515     0.29593    -0.48805
0.76868     0.38789    -0.50341
0.6333      0.4505    -0.53188
0.087426   -0.098138    0.019965
0.19706    -0.18721    0.015857
0.32849    -0.25146   0.0020167
0.47233    -0.27995   -0.012567
0.61773    -0.26825   -0.026449
0.75386     -0.2173   -0.039842
0.87081    -0.13129   -0.053076
0.96007   -0.016813   -0.066305