# vtk DataFile Version 3.0
VTK Output
ASCII
DATASET UNSTRUCTURED_GRID

POINTS 1025 float
-0.5        -0.5           0
0.5        -0.5           0
0.5         0.5           0
-0.5         0.5           0
-0.5         -0.5           10
0.5         -0.5           10
0.5          0.5           10
-0.5          0.5           10
-0.25        -0.5           0
-1.3751e-12        -0.5           0
0.25        -0.5           0
0.5       -0.25           0
0.5 -1.3751e-12           0
0.5        0.25           0
0.25         0.5           0
1.3751e-12         0.5           0
-0.25         0.5           0
-0.5        0.25           0
-0.5  1.3751e-12           0
-0.5       -0.25           0
-0.25         -0.5           10
-1.37512e-12         -0.5           10
0.25         -0.5           10
0.5        -0.25           10
0.5 -1.37512e-12           10
0.5         0.25           10
0.25          0.5           10
1.37512e-12          0.5           10
-0.25          0.5           10
-0.5         0.25           10
-0.5  1.37512e-12           10
-0.5        -0.25           10
-0.5        -0.5        0.25
-0.5        -0.5         0.5
-0.5        -0.5        0.75
-0.5        -0.5           1
-0.5        -0.5        1.25
-0.5        -0.5         1.5
-0.5        -0.5        1.75
-0.5        -0.5           2
-0.5        -0.5        2.25
-0.5        -0.5         2.5
-0.5        -0.5        2.75
-0.5        -0.5           3
-0.5        -0.5        3.25
-0.5        -0.5         3.5
-0.5        -0.5        3.75
-0.5        -0.5           4
-0.5        -0.5        4.25
-0.5        -0.5         4.5
-0.5        -0.5        4.75
-0.5        -0.5           5
-0.5        -0.5        5.25
-0.5        -0.5         5.5
-0.5        -0.5        5.75
-0.5        -0.5           6
-0.5        -0.5        6.25
-0.5        -0.5         6.5
-0.5        -0.5        6.75
-0.5        -0.5           7
-0.5        -0.5        7.25
-0.5        -0.5         7.5
-0.5        -0.5        7.75
-0.5        -0.5           8
-0.5        -0.5        8.25
-0.5        -0.5         8.5
-0.5        -0.5        8.75
-0.5        -0.5           9
-0.5        -0.5        9.25
-0.5        -0.5         9.5
-0.5        -0.5        9.75
0.5        -0.5        0.25
0.5        -0.5         0.5
0.5        -0.5        0.75
0.5        -0.5           1
0.5        -0.5        1.25
0.5        -0.5         1.5
0.5        -0.5        1.75
0.5        -0.5           2
0.5        -0.5        2.25
0.5        -0.5         2.5
0.5        -0.5        2.75
0.5        -0.5           3
0.5        -0.5        3.25
0.5        -0.5         3.5
0.5        -0.5        3.75
0.5        -0.5           4
0.5        -0.5        4.25
0.5        -0.5         4.5
0.5        -0.5        4.75
0.5        -0.5           5
0.5        -0.5        5.25
0.5        -0.5         5.5
0.5        -0.5        5.75
0.5        -0.5           6
0.5        -0.5        6.25
0.5        -0.5         6.5
0.5        -0.5        6.75
0.5        -0.5           7
0.5        -0.5        7.25
0.5        -0.5         7.5
0.5        -0.5        7.75
0.5        -0.5           8
0.5        -0.5        8.25
0.5        -0.5         8.5
0.5        -0.5        8.75
0.5        -0.5           9
0.5        -0.5        9.25
0.5        -0.5         9.5
0.5        -0.5        9.75
0.5         0.5        0.25
0.5         0.5         0.5
0.5         0.5        0.75
0.5         0.5           1
0.5         0.5        1.25
0.5         0.5         1.5
0.5         0.5        1.75
0.5         0.5           2
0.5         0.5        2.25
0.5         0.5         2.5
0.5         0.5        2.75
0.5         0.5           3
0.5         0.5        3.25
0.5         0.5         3.5
0.5         0.5        3.75
0.5         0.5           4
0.5         0.5        4.25
0.5         0.5         4.5
0.5         0.5        4.75
0.5         0.5           5
0.5         0.5        5.25
0.5         0.5         5.5
0.5         0.5        5.75
0.5         0.5           6
0.5         0.5        6.25
0.5         0.5         6.5
0.5         0.5        6.75
0.5         0.5           7
0.5         0.5        7.25
0.5         0.5         7.5
0.5         0.5        7.75
0.5         0.5           8
0.5         0.5        8.25
0.5         0.5         8.5
0.5         0.5        8.75
0.5         0.5           9
0.5         0.5        9.25
0.5         0.5         9.5
0.5         0.5        9.75
-0.5         0.5        0.25
-0.5         0.5         0.5
-0.5         0.5        0.75
-0.5         0.5           1
-0.5         0.5        1.25
-0.5         0.5         1.5
-0.5         0.5        1.75
-0.5         0.5           2
-0.5         0.5        2.25
-0.5         0.5         2.5
-0.5         0.5        2.75
-0.5         0.5           3
-0.5         0.5        3.25
-0.5         0.5         3.5
-0.5         0.5        3.75
-0.5         0.5           4
-0.5         0.5        4.25
-0.5         0.5         4.5
-0.5         0.5        4.75
-0.5         0.5           5
-0.5         0.5        5.25
-0.5         0.5         5.5
-0.5         0.5        5.75
-0.5         0.5           6
-0.5         0.5        6.25
-0.5         0.5         6.5
-0.5         0.5        6.75
-0.5         0.5           7
-0.5         0.5        7.25
-0.5         0.5         7.5
-0.5         0.5        7.75
-0.5         0.5           8
-0.5         0.5        8.25
-0.5         0.5         8.5
-0.5         0.5        8.75
-0.5         0.5           9
-0.5         0.5        9.25
-0.5         0.5         9.5
-0.5         0.5        9.75
-0.25       -0.25           0
-0.25  6.8756e-13           0
-0.25        0.25           0
-6.8756e-13       -0.25           0
-3.7821e-24           0           0
6.8756e-13        0.25           0
0.25       -0.25           0
0.25 -6.8756e-13           0
0.25        0.25           0
-0.25        -0.5        0.25
-0.25        -0.5         0.5
-0.25        -0.5        0.75
-0.25        -0.5           1
-0.25        -0.5        1.25
-0.25        -0.5         1.5
-0.25        -0.5        1.75
-0.25        -0.5           2
-0.25        -0.5        2.25
-0.25        -0.5         2.5
-0.25        -0.5        2.75
-0.25        -0.5           3
-0.25        -0.5        3.25
-0.25        -0.5         3.5
-0.25        -0.5        3.75
-0.25        -0.5           4
-0.25        -0.5        4.25
-0.25        -0.5         4.5
-0.25        -0.5        4.75
-0.25        -0.5           5
-0.25        -0.5        5.25
-0.25        -0.5         5.5
-0.25        -0.5        5.75
-0.25        -0.5           6
-0.25        -0.5        6.25
-0.25        -0.5         6.5
-0.25        -0.5        6.75
-0.25        -0.5           7
-0.25        -0.5        7.25
-0.25        -0.5         7.5
-0.25        -0.5        7.75
-0.25        -0.5           8
-0.25        -0.5        8.25
-0.25        -0.5         8.5
-0.25        -0.5        8.75
-0.25        -0.5           9
-0.25        -0.5        9.25
-0.25        -0.5         9.5
-0.25        -0.5        9.75
-1.3751e-12        -0.5        0.25
-1.3751e-12        -0.5         0.5
-1.3751e-12        -0.5        0.75
-1.3751e-12        -0.5           1
-1.3751e-12        -0.5        1.25
-1.3751e-12        -0.5         1.5
-1.3751e-12        -0.5        1.75
-1.3751e-12        -0.5           2
-1.3751e-12        -0.5        2.25
-1.3751e-12        -0.5         2.5
-1.3751e-12        -0.5        2.75
-1.3751e-12        -0.5           3
-1.3751e-12        -0.5        3.25
-1.3751e-12        -0.5         3.5
-1.3751e-12        -0.5        3.75
-1.3751e-12        -0.5           4
-1.3751e-12        -0.5        4.25
-1.3751e-12        -0.5         4.5
-1.3751e-12        -0.5        4.75
-1.3751e-12        -0.5           5
-1.3751e-12        -0.5        5.25
-1.3751e-12        -0.5         5.5
-1.3751e-12        -0.5        5.75
-1.3751e-12        -0.5           6
-1.3751e-12        -0.5        6.25
-1.3751e-12        -0.5         6.5
-1.3751e-12        -0.5        6.75
-1.3751e-12        -0.5           7
-1.3751e-12        -0.5        7.25
-1.3751e-12        -0.5         7.5
-1.3751e-12        -0.5        7.75
-1.3751e-12        -0.5           8
-1.3751e-12        -0.5        8.25
-1.3751e-12        -0.5         8.5
-1.3751e-12        -0.5        8.75
-1.3751e-12        -0.5           9
-1.3751e-12        -0.5        9.25
-1.3751e-12        -0.5         9.5
-1.3751e-12        -0.5        9.75
0.25        -0.5        0.25
0.25        -0.5         0.5
0.25        -0.5        0.75
0.25        -0.5           1
0.25        -0.5        1.25
0.25        -0.5         1.5
0.25        -0.5        1.75
0.25        -0.5           2
0.25        -0.5        2.25
0.25        -0.5         2.5
0.25        -0.5        2.75
0.25        -0.5           3
0.25        -0.5        3.25
0.25        -0.5         3.5
0.25        -0.5        3.75
0.25        -0.5           4
0.25        -0.5        4.25
0.25        -0.5         4.5
0.25        -0.5        4.75
0.25        -0.5           5
0.25        -0.5        5.25
0.25        -0.5         5.5
0.25        -0.5        5.75
0.25        -0.5           6
0.25        -0.5        6.25
0.25        -0.5         6.5
0.25        -0.5        6.75
0.25        -0.5           7
0.25        -0.5        7.25
0.25        -0.5         7.5
0.25        -0.5        7.75
0.25        -0.5           8
0.25        -0.5        8.25
0.25        -0.5         8.5
0.25        -0.5        8.75
0.25        -0.5           9
0.25        -0.5        9.25
0.25        -0.5         9.5
0.25        -0.5        9.75
0.5       -0.25        0.25
0.5       -0.25         0.5
0.5       -0.25        0.75
0.5       -0.25           1
0.5       -0.25        1.25
0.5       -0.25         1.5
0.5       -0.25        1.75
0.5       -0.25           2
0.5       -0.25        2.25
0.5       -0.25         2.5
0.5       -0.25        2.75
0.5       -0.25           3
0.5       -0.25        3.25
0.5       -0.25         3.5
0.5       -0.25        3.75
0.5       -0.25           4
0.5       -0.25        4.25
[...]
POINT_DATA 1025
VECTORS displacement double
0  0  0
0  0  0
0  0  0
0  0  0
-0.15328      0.7706    -0.66198
-0.7706    -0.15328    -0.66198
0.15328     -0.7706    -0.66198
0.7706     0.15328    -0.66198
0  0  0
0  0  0
0  0  0
0  0  0
0  0  0
0  0  0
0  0  0
0  0  0
0  0  0
0  0  0
0  0  0
0  0  0
-0.30761     0.53963    -0.67053
-0.46194     0.30866    -0.61381
-0.61627    0.077688    -0.57532
-0.53963    -0.30761    -0.67053
-0.30866    -0.46194    -0.61381
-0.077688    -0.61627    -0.57532
0.30761    -0.53963    -0.67053
0.46194    -0.30866    -0.61381
0.61627   -0.077688    -0.57532
0.53963     0.30761    -0.67053
0.30866     0.46194    -0.61381
0.077688     0.61627    -0.57532
0.14229   -0.076366  -0.0035776
0.31754    -0.14589   -0.022092
0.50797    -0.16816   -0.040668
0.69721    -0.13844   -0.057309
0.86942   -0.057528   -0.072215
1.0111    0.068065   -0.086313
1.1116     0.22817    -0.10026
1.1632     0.40998    -0.11427
1.1619     0.59902    -0.12834
1.1078     0.78018    -0.14245
1.0052     0.93899    -0.15655
0.86225      1.0628    -0.17066
0.6904      1.1416    -0.18477
0.50335      1.1693    -0.19887
0.31604      1.1435    -0.21297
0.14341      1.0664    -0.22707
-0.0007648     0.94403    -0.24118
-0.10497     0.78626    -0.25528
-0.16089     0.60563    -0.26938
-0.16406     0.41658    -0.28349
-0.11422     0.23419    -0.29759
-0.01537    0.073009    -0.31169
0.12462    -0.05409     -0.3258
0.29457    -0.13697     -0.3399
0.48091      -0.169      -0.354
0.66878    -0.14764    -0.36811
0.84318   -0.074594    -0.38221
0.99018    0.044318    -0.39631
1.0981     0.19961    -0.41042
1.1582     0.37888    -0.42454
1.1658     0.56784    -0.43868
1.1203     0.75136    -0.45283
1.0255     0.91476    -0.46686
0.88915       1.045     -0.4805
0.72186      1.1315    -0.49347
0.53558      1.1664    -0.50641
0.34208      1.1432      -0.523
0.15471      1.0589    -0.55191
-0.010361     0.92263    -0.59925
0.076366     0.14229  -0.0035776
0.14589     0.31754   -0.022092
0.16816     0.50797   -0.040668
0.13844     0.69721   -0.057309
0.057528     0.86942   -0.072215
-0.068065      1.0111   -0.086313
-0.22817      1.1116    -0.10026
-0.40998      1.1632    -0.11427
-0.59902      1.1619    -0.12834
-0.78018      1.1078    -0.14245
-0.93899      1.0052    -0.15655
-1.0628     0.86225    -0.17066
-1.1416      0.6904    -0.18477
-1.1693     0.50335    -0.19887
-1.1435     0.31604    -0.21297
-1.0664     0.14341    -0.22707
-0.94403  -0.0007648    -0.24118
-0.78626    -0.10497    -0.25528
-0.60563    -0.16089    -0.26938
-0.41658    -0.16406    -0.28349
-0.23419    -0.11422    -0.29759
-0.073009    -0.01537    -0.31169
0.05409     0.12462     -0.3258
0.13697     0.29457     -0.3399
0.169     0.48091      -0.354
0.14764     0.66878    -0.36811
0.074594     0.84318    -0.38221
-0.044318     0.99018    -0.39631
-0.19961      1.0981    -0.41042
-0.37888      1.1582    -0.42454
-0.56784      1.1658    -0.43868
-0.75136      1.1203    -0.45283
-0.91476      1.0255    -0.46686
-1.045     0.88915     -0.4805
-1.1315     0.72186    -0.49347
-1.1664     0.53558    -0.50641
-1.1432     0.34208      -0.523
-1.0589     0.15471    -0.55191
-0.92263   -0.010361    -0.59925
-0.14229    0.076366  -0.0035776
-0.31754     0.14589   -0.022092
-0.50797     0.16816   -0.040668
-0.69721     0.13844   -0.057309
-0.86942    0.057528   -0.072215
-1.0111   -0.068065   -0.086313
-1.1116    -0.22817    -0.10026
-1.1632    -0.40998    -0.11427
-1.1619    -0.59902    -0.12834
-1.1078    -0.78018    -0.14245
-1.0052    -0.93899    -0.15655
-0.86225     -1.0628    -0.17066
-0.6904     -1.1416    -0.18477
-0.50335     -1.1693    -0.19887
-0.31604     -1.1435    -0.21297
-0.14341     -1.0664    -0.22707
0.0007648    -0.94403    -0.24118
0.10497    -0.78626    -0.25528
0.16089    -0.60563    -0.26938
0.16406    -0.41658    -0.28349
0.11422    -0.23419    -0.29759
0.01537   -0.073009    -0.31169
-0.12462     0.05409     -0.3258
-0.29457     0.13697     -0.3399
-0.48091       0.169      -0.354
-0.66878     0.14764    -0.36811
-0.84318    0.074594    -0.38221
-0.99018   -0.044318    -0.39631
-1.0981    -0.19961    -0.41042
-1.1582    -0.37888    -0.42454
-1.1658    -0.56784    -0.43868
-1.1203    -0.75136    -0.45283
-1.0255    -0.91476    -0.46686
-0.88915      -1.045     -0.4805
-0.72186     -1.1315    -0.49347
-0.53558     -1.1664    -0.50641
-0.34208     -1.1432      -0.523
-0.15471     -1.0589    -0.55191
0.010361    -0.92263    -0.59925
-0.076366    -0.14229  -0.0035776
-0.14589    -0.31754   -0.022092
-0.16816    -0.50797   -0.040668
-0.13844    -0.69721   -0.057309
-0.057528    -0.86942   -0.072215
0.068065     -1.0111   -0.086313
0.22817     -1.1116    -0.10026
0.40998     -1.1632    -0.11427
0.59902     -1.1619    -0.12834
0.78018     -1.1078    -0.14245
0.93899     -1.0052    -0.15655
1.0628    -0.86225    -0.17066
1.1416     -0.6904    -0.18477
1.1693    -0.50335    -0.19887
1.1435    -0.31604    -0.21297
1.0664    -0.14341    -0.22707
0.94403   0.0007648    -0.24118
0.78626     0.10497    -0.25528
0.60563     0.16089    -0.26938
0.41658     0.16406    -0.28349
0.23419     0.11422    -0.29759
0.073009     0.01537    -0.31169
-0.05409    -0.12462     -0.3258
-0.13697    -0.29457     -0.3399
-0.169    -0.48091      -0.354
-0.14764    -0.66878    -0.36811
-0.074594    -0.84318    -0.38221
0.044318    -0.99018    -0.39631
0.19961     -1.0981    -0.41042
0.37888     -1.1582    -0.42454
0.56784     -1.1658    -0.43868
0.75136     -1.1203    -0.45283
0.91476     -1.0255    -0.46686
1.045    -0.88915     -0.4805
1.1315    -0.72186    -0.49347
1.1664    -0.53558    -0.50641
1.1432    -0.34208      -0.523
1.0589    -0.15471    -0.55191
0.92263    0.010361    -0.59925
0  0  0
0  0  0
0  0  0
0  0  0
0  0  0
0  0  0
0  0  0
0  0  0
0  0  0
0.12658   -0.025616   -0.043773
0.27208   -0.030311   -0.067685
0.42102 -0.00041443   -0.085621
0.55613    0.068659    -0.10089
0.66557     0.17191    -0.11503
0.74108     0.30126    -0.12895
0.77715     0.44644    -0.14293
0.7711     0.59593      -0.157
0.72347     0.73781     -0.1711
0.63806     0.86073    -0.18521
0.52168     0.95487    -0.19932
0.38362      1.0127    -0.21342
0.23489      1.0296    -0.22753
0.087375      1.0042    -0.24163
-0.047164     0.93864    -0.25573
-0.15799     0.83803    -0.26984
-0.23624     0.71043    -0.28394
-0.27569     0.56604    -0.29804
-0.27318     0.41638    -0.31215
-0.22892     0.27339    -0.32625
-0.14643     0.14849    -0.34035
-0.032299    0.051645    -0.35446
0.10436  -0.0094157    -0.36856
0.25265   -0.029818    -0.38266
0.40072  -0.0079344    -0.39677
0.53677    0.054489    -0.41087
0.64992     0.15247    -0.42497
0.73116     0.27819    -0.43907
0.77399     0.42162    -0.45318
0.77498     0.57131    -0.46729
0.73408     0.71532    -0.48142
0.65458     0.84214    -0.49552
0.54298     0.94172    -0.50954
0.40829      1.0062    -0.52333
0.2611      1.0303    -0.53692
0.11257      1.0106    -0.55109
-0.025668     0.94412    -0.56852
-0.14093     0.83059    -0.59426
-0.22322     0.68732    -0.62583
0.11897    0.026665  -0.0080624
0.23471    0.081086   -0.024489
0.34276     0.16587   -0.042746
0.42414     0.27652   -0.058244
0.47056     0.40473   -0.072357
0.47869     0.54025    -0.08621
0.4484     0.67245    -0.10017
0.3823      0.7909    -0.11423
0.28569     0.88618    -0.12834
0.16628     0.95066    -0.14245
0.033598     0.97918    -0.15656
-0.10176     0.96946    -0.17066
-0.229     0.92226    -0.18477
-0.33796     0.84136    -0.19887
-0.41995     0.73322    -0.21297
-0.46841     0.60646    -0.22707
-0.4795     0.47121    -0.24118
-0.45231     0.33825    -0.25528
-0.38902      0.2182    -0.26938
-0.29468     0.12065    -0.28349
-0.17682     0.05337    -0.29759
-0.044853    0.021739    -0.31169
0.090697    0.028281     -0.3258
0.21901    0.072472     -0.3399
0.32984     0.15079      -0.354
0.41435     0.25697    -0.36811
0.46578     0.38255    -0.38221
0.48004     0.51751    -0.39631
0.45598     0.65107    -0.41041
0.39552     0.77258    -0.42452
0.30347     0.87233    -0.43864
0.18722     0.94239    -0.45281
0.056129     0.97721    -0.46699
-0.079224     0.97418    -0.48102
-0.20799     0.93358    -0.49441
-0.31989     0.85773    -0.50656
-0.40526     0.74978    -0.51794
-0.45571     0.61214    -0.53477
-0.46489     0.45599    -0.56679
0.10002    0.090651    0.020394
0.19002      0.2048    0.015967
0.25342     0.34173   0.0012591
0.27843     0.49097   -0.014329
0.26048     0.64036   -0.029147
0.20108     0.77794   -0.043398
0.10543     0.89302   -0.057459
-0.01862     0.97668    -0.07151
-0.16114      1.0223    -0.08559
-0.31077      1.0263   -0.099689
-0.45555     0.98833    -0.11379
-0.58392     0.91135     -0.1279
-0.68564     0.80154      -0.142
-0.7526     0.66767    -0.15611
-0.77943     0.52041    -0.17021
-0.76401     0.37152    -0.18431
-0.70757     0.23289    -0.19842
-0.6146     0.11558    -0.21252
-0.49254    0.028947    -0.22662
-0.35111   -0.020087    -0.24073
-0.20162   -0.027611    -0.25483
-0.055988   0.0069749    -0.26893
0.074159    0.080911    -0.28304
0.17843      0.1883    -0.29714
0.24851     0.32056    -0.31124
0.27881     0.46715    -0.32535
0.26689     0.61635    -0.33945
0.21372     0.75627    -0.35355
0.12354     0.87574    -0.36765
0.0035255     0.96522    -0.38176
-0.13673      1.0176    -0.39588
-0.28602      1.0286    -0.41003
-0.43238     0.99763    -0.42418
-0.56402     0.92716    -0.43819
-0.6703     0.82283    -0.45173
-0.74233     0.69212    -0.46449
-0.77292     0.54261    -0.47744
-0.75649     0.38158    -0.49492
-0.69369     0.21728    -0.52977
0.025616     0.12658   -0.043773
0.030311     0.27208   -0.067685
0.00041443     0.42102   -0.085621
-0.068659     0.55613    -0.10089
-0.17191     0.66557    -0.11503
-0.30126     0.74108    -0.12895
-0.44644     0.77715    -0.14293
-0.59593      0.7711      -0.157
-0.73781     0.72347     -0.1711
-0.86073     0.63806    -0.18521
-0.95487     0.52168    -0.19932
-1.0127     0.38362    -0.21342
-1.0296     0.23489    -0.22753
-1.0042    0.087375    -0.24163
-0.93864   -0.047164    -0.25573
-0.83803    -0.15799    -0.26984
-0.71043    -0.23624    -0.28394
-0.56604    -0.27569    -0.29804
-0.41638    -0.27318    -0.31215
-0.27339    -0.22892    -0.32625
-0.14849    -0.14643    -0.34035
-0.051645   -0.032299    -0.35446
0.0094157     0.10436    -0.36856
0.029818     0.25265    -0.38266
0.0079344     0.40072    -0.39677
-0.054489     0.53677    -0.41087
-0.15247     0.64992    -0.42497
-0.27819     0.73116    -0.43907
-0.42162     0.77399    -0.45318
-0.57131     0.77498    -0.46729
-0.71532     0.73408    -0.48142
-0.84214     0.65458    -0.49552
-0.94172     0.54298    -0.50954
-1.0062     0.40829    -0.52333
-1.0303      0.2611    -0.53692
-1.0106     0.11257    -0.55109
-0.94412   -0.025668    -0.56852
-0.83059    -0.14093    -0.59426
-0.68732    -0.22322    -0.62583
-0.026665     0.11897  -0.0080624
-0.081086     0.23471   -0.024489
-0.16587     0.34276   -0.042746
-0.27652     0.42414   -0.058244
-0.40473     0.47056   -0.072357
-0.54025     0.47869    -0.08621
-0.67245      0.4484    -0.10017
-0.7909      0.3823    -0.11423
-0.88618     0.28569    -0.12834
-0.95066     0.16628    -0.14245
-0.97918    0.033598    -0.15656
-0.96946    -0.10176    -0.17066
-0.92226      -0.229    -0.18477
-0.84136    -0.33796    -0.19887
-0.73322    -0.41995    -0.21297
-0.60646    -0.46841    -0.22707
-0.47121     -0.4795    -0.24118
-0.33825    -0.45231    -0.25528
-0.2182    -0.38902    -0.26938
-0.12065    -0.29468    -0.28349
-0.05337    -0.17682    -0.29759
-0.021739   -0.044853    -0.31169
-0.028281    0.090697     -0.3258
-0.072472     0.21901     -0.3399
-0.15079     0.32984      -0.354
-0.25697     0.41435    -0.36811
-0.38255     0.46578    -0.38221
-0.51751     0.48004    -0.39631
-0.65107     0.45598    -0.41041
-0.77258     0.39552    -0.42452
-0.87233     0.30347    -0.43864
-0.94239     0.18722    -0.45281
-0.97721    0.056129    -0.46699
-0.97418   -0.079224    -0.48102
-0.93358    -0.20799    -0.49441
-0.85773    -0.31989    -0.50656
-0.74978    -0.40526    -0.51794
-0.61214    -0.45571    -0.53477
-0.45599    -0.46489    -0.56679
-0.090651     0.10002    0.020394
-0.2048     0.19002    0.015967
-0.34173     0.25342   0.0012591
-0.49097     0.27843   -0.014329
-0.64036     0.26048   -0.029147
-0.77794     0.20108   -0.043398
-0.89302     0.10543   -0.057459
-0.97668    -0.01862    -0.07151
-1.0223    -0.16114    -0.08559
-1.0263    -0.31077   -0.099689
-0.98833    -0.45555    -0.11379
-0.91135    -0.58392     -0.1279
-0.80154    -0.68564      -0.142
-0.66767     -0.7526    -0.15611
-0.52041    -0.77943    -0.17021
-0.37152    -0.76401    -0.18431
-0.23289    -0.70757    -0.19842
-0.11558     -0.6146    -0.21252
-0.028947    -0.49254    -0.22662
0.020087    -0.35111    -0.24073
0.027611    -0.20162    -0.25483
-0.0069749   -0.055988    -0.26893
-0.080911    0.074159    -0.28304
-0.1883     0.17843    -0.29714
-0.32056     0.24851    -0.31124
-0.46715     0.27881    -0.32535
-0.61635     0.26689    -0.33945
-0.75627     0.21372    -0.35355
-0.87574     0.12354    -0.36765
-0.96522   0.0035255    -0.38176
-1.0176    -0.13673    -0.39588
-1.0286    -0.28602    -0.41003
-0.99763    -0.43238    -0.42418
-0.92716    -0.56402    -0.43819
-0.82283     -0.6703    -0.45173
-0.69212    -0.74233    -0.46449
-0.54261    -0.77292    -0.47744
-0.38158    -0.75649    -0.49492
-0.21728    -0.69369    -0.52977
-0.12658    0.025616   -0.043773
-0.27208    0.030311   -0.067685
-0.42102  0.00041443   -0.085621
-0.55613   -0.068659    -0.10089
-0.66557    -0.17191    -0.11503
-0.74108    -0.30126    -0.12895
-0.77715    -0.44644    -0.14293
-0.7711    -0.59593      -0.157
-0.72347    -0.73781     -0.1711
-0.63806    -0.86073    -0.18521
-0.52168    -0.95487    -0.19932
-0.38362     -1.0127    -0.21342
-0.23489     -1.0296    -0.22753
-0.087375     -1.0042    -0.24163
0.047164    -0.93864    -0.25573
0.15799    -0.83803    -0.26984
0.23624    -0.71043    -0.28394
0.27569    -0.56604    -0.29804
0.27318    -0.41638    -0.31215
0.22892    -0.27339    -0.32625
0.14643    -0.14849    -0.34035
0.032299   -0.051645    -0.35446
-0.10436   0.0094157    -0.36856
-0.25265    0.029818    -0.38266
-0.40072   0.0079344    -0.39677
-0.53677   -0.054489    -0.41087
-0.64992    -0.15247    -0.42497
-0.73116    -0.27819    -0.43907
-0.77399    -0.42162    -0.45318
-0.77498    -0.57131    -0.46729
-0.73408    -0.71532    -0.48142
-0.65458    -0.84214    -0.49552
-0.54298    -0.94172    -0.50954
-0.40829     -1.0062    -0.52333
-0.2611     -1.0303    -0.53692
-0.11257     -1.0106    -0.55109
0.025668    -0.94412    -0.56852
0.14093    -0.83059    -0.59426
0.22322    -0.68732    -0.62583
-0.11897   -0.026665  -0.0080624
-0.23471   -0.081086   -0.024489
-0.34276    -0.16587   -0.042746
-0.42414    -0.27652   -0.058244
-0.47056    -0.40473   -0.072357
-0.47869    -0.54025    -0.08621
-0.4484    -0.67245    -0.10017
-0.3823     -0.7909    -0.11423
-0.28569    -0.88618    -0.12834
-0.16628    -0.95066    -0.14245
-0.033598    -0.97918    -0.15656
0.10176    -0.96946    -0.17066
0.229    -0.92226    -0.18477
0.33796    -0.84136    -0.19887
0.41995    -0.73322    -0.21297
0.46841    -0.60646    -0.22707
0.4795    -0.47121    -0.24118
0.45231    -0.33825    -0.25528
0.38902     -0.2182    -0.26938
0.29468    -0.12065    -0.28349
0.17682    -0.05337    -0.29759
0.044853   -0.021739    -0.31169
-0.090697   -0.028281     -0.3258
-0.21901   -0.072472     -0.3399
-0.32984    -0.15079      -0.354
-0.41435    -0.25697    -0.36811
-0.46578    -0.38255    -0.38221
-0.48004    -0.51751    -0.39631
-0.45598    -0.65107    -0.41041
-0.39552    -0.77258    -0.42452
-0.30347    -0.87233    -0.43864
-0.18722    -0.94239    -0.45281
-0.056129    -0.97721    -0.46699
0.079224    -0.97418    -0.48102
0.20799    -0.93358    -0.49441
0.31989    -0.85773    -0.50656
0.40526    -0.74978    -0.51794
0.45571    -0.61214    -0.53477
0.46489    -0.45599    -0.56679
-0.10002   -0.090651    0.020394
-0.19002     -0.2048    0.015967
-0.25342    -0.34173   0.0012591
-0.27843    -0.49097   -0.014329
-0.26048    -0.64036   -0.029147
-0.20108    -0.77794   -0.043398
-0.10543    -0.89302   -0.057459
0.01862    -0.97668    -0.07151
0.16114     -1.0223    -0.08559
0.31077     -1.0263   -0.099689
0.45555    -0.98833    -0.11379
0.58392    -0.91135     -0.1279
0.68564    -0.80154      -0.142
0.7526    -0.66767    -0.15611
0.77943    -0.52041    -0.17021
0.76401    -0.37152    -0.18431
0.70757    -0.23289    -0.19842
0.6146    -0.11558    -0.21252
0.49254   -0.028947    -0.22662
0.35111    0.020087    -0.24073
0.20162    0.027611    -0.25483
0.055988  -0.0069749    -0.26893
-0.074159   -0.080911    -0.28304
-0.17843     -0.1883    -0.29714
-0.24851    -0.32056    -0.31124
-0.27881    -0.46715    -0.32535
-0.26689    -0.61635    -0.33945
-0.21372    -0.75627    -0.35355
-0.12354    -0.87574    -0.36765
-0.0035255    -0.96522    -0.38176
0.13673     -1.0176    -0.39588
0.28602     -1.0286    -0.41003
0.43238    -0.99763    -0.42418
0.56402    -0.92716    -0.43819
0.6703    -0.82283    -0.45173
0.74233    -0.69212    -0.46449
0.77292    -0.54261    -0.47744
0.75649    -0.38158    -0.49492
0.69369    -0.21728    -0.52977
-0.025616    -0.12658   -0.043773
-0.030311    -0.27208   -0.067685
-0.00041443    -0.42102   -0.085621
0.068659    -0.55613    -0.10089
0.17191    -0.66557    -0.11503
0.30126    -0.74108    -0.12895
0.44644    -0.77715    -0.14293
0.59593     -0.7711      -0.157
0.73781    -0.72347     -0.1711
0.86073    -0.63806    -0.18521
0.95487    -0.52168    -0.19932
1.0127    -0.38362    -0.21342
1.0296    -0.23489    -0.22753
1.0042   -0.087375    -0.24163
0.93864    0.047164    -0.25573
0.83803     0.15799    -0.26984
0.71043     0.23624    -0.28394
0.56604     0.27569    -0.29804
0.41638     0.27318    -0.31215
0.27339     0.22892    -0.32625
0.14849     0.14643    -0.34035
0.051645    0.032299    -0.35446
-0.0094157    -0.10436    -0.36856
-0.029818    -0.25265    -0.38266
-0.0079344    -0.40072    -0.39677
0.054489    -0.53677    -0.41087
0.15247    -0.64992    -0.42497
0.27819    -0.73116    -0.43907
0.42162    -0.77399    -0.45318
0.57131    -0.77498    -0.46729
0.71532    -0.73408    -0.48142
0.84214    -0.65458    -0.49552
0.94172    -0.54298    -0.50954
1.0062    -0.40829    -0.52333
1.0303     -0.2611    -0.53692
1.0106    -0.11257    -0.55109
0.94412    0.025668    -0.56852
0.83059     0.14093    -0.59426
0.68732     0.22322    -0.62583
0.026665    -0.11897  -0.0080624
0.081086    -0.23471   -0.024489
0.16587    -0.34276   -0.042746
0.27652    -0.42414   -0.058244
0.40473    -0.47056   -0.072357
0.54025    -0.47869    -0.08621
0.67245     -0.4484    -0.10017
0.7909     -0.3823    -0.11423
0.88618    -0.28569    -0.12834
0.95066    -0.16628    -0.14245
0.97918   -0.033598    -0.15656
0.96946     0.10176    -0.17066
0.92226       0.229    -0.18477
0.84136     0.33796    -0.19887
0.73322     0.41995    -0.21297
0.60646     0.46841    -0.22707
0.47121      0.4795    -0.24118
0.33825     0.45231    -0.25528
0.2182     0.38902    -0.26938
0.12065     0.29468    -0.28349
0.05337     0.17682    -0.29759
0.021739    0.044853    -0.31169
0.028281   -0.090697     -0.3258
0.072472    -0.21901     -0.3399
0.15079    -0.32984      -0.354
0.25697    -0.41435    -0.36811
0.38255    -0.46578    -0.38221
0.51751    -0.48004    -0.39631
0.65107    -0.45598    -0.41041
0.77258    -0.39552    -0.42452
0.87233    -0.30347    -0.43864
0.94239    -0.18722    -0.45281
0.97721   -0.056129    -0.46699
0.97418    0.079224    -0.48102
0.93358     0.20799    -0.49441
0.85773     0.31989    -0.50656
0.74978     0.40526    -0.51794
0.61214     0.45571    -0.53477
0.45599     0.46489    -0.56679
0.090651    -0.10002    0.020394
0.2048    -0.19002    0.015967
0.34173    -0.25342   0.0012591
0.49097    -0.27843   -0.014329
0.64036    -0.26048   -0.029147
0.77794    -0.20108   -0.043398