# vtk DataFile Version 3.0
VTK Output
ASCII
DATASET UNSTRUCTURED_GRID

POINTS 1025 float
-0.5        -0.5           0
0.5        -0.5           0
0.5         0.5           0
-0.5         0.5           0
-0.5         -0.5           10
0.5         -0.5           10
0.5          0.5           10
-0.5          0.5           10
-0.25        -0.5           0
-1.3751e-12        -0.5           0
0.25        -0.5           0
0.5       -0.25           0
0.5 -1.3751e-12           0
0.5        0.25           0
0.25         0.5           0
1.3751e-12         0.5           0
-0.25         0.5           0
-0.5        0.25           0
-0.5  1.3751e-12           0
-0.5       -0.25           0
-0.25         -0.5           10
-1.37512e-12         -0.5           10
0.25         -0.5           10
0.5        -0.25           10
0.5 -1.37512e-12           10
0.5         0.25           10
0.25          0.5           10
1.37512e-12          0.5           10
-0.25          0.5           10
-0.5         0.25           10
-0.5  1.37512e-12           10
-0.5        -0.25           10
-0.5        -0.5        0.25
-0.5        -0.5         0.5
-0.5        -0.5        0.75
-0.5        -0.5           1
-0.5        -0.5        1.25
-0.5        -0.5         1.5
-0.5        -0.5        1.75
-0.5        -0.5           2
-0.5        -0.5        2.25
-0.5        -0.5         2.5
-0.5        -0.5        2.75
-0.5        -0.5           3
-0.5        -0.5        3.25
-0.5        -0.5         3.5
-0.5        -0.5        3.75
-0.5        -0.5           4
-0.5        -0.5        4.25
-0.5        -0.5         4.5
-0.5        -0.5        4.75
-0.5        -0.5           5
-0.5        -0.5        5.25
-0.5        -0.5         5.5
-0.5        -0.5        5.75
-0.5        -0.5           6
-0.5        -0.5        6.25
-0.5        -0.5         6.5
-0.5        -0.5        6.75
-0.5        -0.5           7
-0.5        -0.5        7.25
-0.5        -0.5         7.5
-0.5        -0.5        7.75
-0.5        -0.5           8
-0.5        -0.5        8.25
-0.5        -0.5         8.5
-0.5        -0.5        8.75
-0.5        -0.5           9
-0.5        -0.5        9.25
-0.5        -0.5         9.5
-0.5        -0.5        9.75
0.5        -0.5        0.25
0.5        -0.5         0.5
0.5        -0.5        0.75
0.5        -0.5           1
0.5        -0.5        1.25
0.5        -0.5         1.5
0.5        -0.5        1.75
0.5        -0.5           2
0.5        -0.5        2.25
0.5        -0.5         2.5
0.5        -0.5        2.75
0.5        -0.5           3
0.5        -0.5        3.25
0.5        -0.5         3.5
0.5        -0.5        3.75
0.5        -0.5           4
0.5        -0.5        4.25
0.5        -0.5         4.5
0.5        -0.5        4.75
0.5        -0.5           5
0.5        -0.5        5.25
0.5        -0.5         5.5
0.5        -0.5        5.75
0.5        -0.5           6
0.5        -0.5        6.25
0.5        -0.5         6.5
0.5        -0.5        6.75
0.5        -0.5           7
0.5        -0.5        7.25
0.5        -0.5         7.5
0.5        -0.5        7.75
0.5        -0.5           8
0.5        -0.5        8.25
0.5        -0.5         8.5
0.5        -0.5        8.75
0.5        -0.5           9
0.5        -0.5        9.25
0.5        -0.5         9.5
0.5        -0.5        9.75
0.5         0.5        0.25
0.5         0.5         0.5
0.5         0.5        0.75
0.5         0.5           1
0.5         0.5        1.25
0.5         0.5         1.5
0.5         0.5        1.75
0.5         0.5           2
0.5         0.5        2.25
0.5         0.5         2.5
0.5         0.5        2.75
0.5         0.5           3
0.5         0.5        3.25
0.5         0.5         3.5
0.5         0.5        3.75
0.5         0.5           4
0.5         0.5        4.25
0.5         0.5         4.5
0.5         0.5        4.75
0.5         0.5           5
0.5         0.5        5.25
0.5         0.5         5.5
0.5         0.5        5.75
0.5         0.5           6
0.5         0.5        6.25
0.5         0.5         6.5
0.5         0.5        6.75
0.5         0.5           7
0.5         0.5        7.25
0.5         0.5         7.5
0.5         0.5        7.75
0.5         0.5           8
0.5         0.5        8.25
0.5         0.5         8.5
0.5         0.5        8.75
0.5         0.5           9
0.5         0.5        9.25
0.5         0.5         9.5
0.5         0.5        9.75
-0.5         0.5        0.25
-0.5         0.5         0.5
-0.5         0.5        0.75
-0.5         0.5           1
-0.5         0.5        1.25
-0.5         0.5         1.5
-0.5         0.5        1.75
-0.5         0.5           2
-0.5         0.5        2.25
-0.5         0.5         2.5
-0.5         0.5        2.75
-0.5         0.5           3
-0.5         0.5        3.25
-0.5         0.5         3.5
-0.5         0.5        3.75
-0.5         0.5           4
-0.5         0.5        4.25
-0.5         0.5         4.5
-0.5         0.5        4.75
-0.5         0.5           5
-0.5         0.5        5.25
-0.5         0.5         5.5
-0.5         0.5        5.75
-0.5         0.5           6
-0.5         0.5        6.25
-0.5         0.5         6.5
-0.5         0.5        6.75
-0.5         0.5           7
-0.5         0.5        7.25
-0.5         0.5         7.5
-0.5         0.5        7.75
-0.5         0.5           8
-0.5         0.5        8.25
-0.5         0.5         8.5
-0.5         0.5        8.75
-0.5         0.5           9
-0.5         0.5        9.25
-0.5         0.5         9.5
-0.5         0.5        9.75
-0.25       -0.25           0
-0.25  6.8756e-13           0
-0.25        0.25           0
-6.8756e-13       -0.25           0
-3.7821e-24           0           0
6.8756e-13        0.25           0
0.25       -0.25           0
0.25 -6.8756e-13           0
0.25        0.25           0
-0.25        -0.5        0.25
-0.25        -0.5         0.5
-0.25        -0.5        0.75
-0.25        -0.5           1
-0.25        -0.5        1.25
-0.25        -0.5         1.5
-0.25        -0.5        1.75
-0.25        -0.5           2
-0.25        -0.5        2.25
-0.25        -0.5         2.5
-0.25        -0.5        2.75
-0.25        -0.5           3
-0.25        -0.5        3.25
-0.25        -0.5         3.5
-0.25        -0.5        3.75
-0.25        -0.5           4
-0.25        -0.5        4.25
-0.25        -0.5         4.5
-0.25        -0.5        4.75
-0.25        -0.5           5
-0.25        -0.5        5.25
-0.25        -0.5         5.5
-0.25        -0.5        5.75
-0.25        -0.5           6
-0.25        -0.5        6.25
-0.25        -0.5         6.5
-0.25        -0.5        6.75
-0.25        -0.5           7
-0.25        -0.5        7.25
-0.25        -0.5         7.5
-0.25        -0.5        7.75
-0.25        -0.5           8
-0.25        -0.5        8.25
-0.25        -0.5         8.5
-0.25        -0.5        8.75
-0.25        -0.5           9
-0.25        -0.5        9.25
-0.25        -0.5         9.5
-0.25        -0.5        9.75
-1.3751e-12        -0.5        0.25
-1.3751e-12        -0.5         0.5
-1.3751e-12        -0.5        0.75
-1.3751e-12        -0.5           1
-1.3751e-12        -0.5        1.25
-1.3751e-12        -0.5         1.5
-1.3751e-12        -0.5        1.75
-1.3751e-12        -0.5           2
-1.3751e-12        -0.5        2.25
-1.3751e-12        -0.5         2.5
-1.3751e-12        -0.5        2.75
-1.3751e-12        -0.5           3
-1.3751e-12        -0.5        3.25
-1.3751e-12        -0.5         3.5
-1.3751e-12        -0.5        3.75
-1.3751e-12        -0.5           4
-1.3751e-12        -0.5        4.25
-1.3751e-12        -0.5         4.5
-1.3751e-12        -0.5        4.75
-1.3751e-12        -0.5           5
-1.3751e-12        -0.5        5.25
-1.3751e-12        -0.5         5.5
-1.3751e-12        -0.5        5.75
-1.3751e-12        -0.5           6
-1.3751e-12        -0.5        6.25
-1.3751e-12        -0.5         6.5
-1.3751e-12        -0.5        6.75
-1.3751e-12        -0.5           7
-1.3751e-12        -0.5        7.25
-1.3751e-12        -0.5         7.5
-1.3751e-12        -0.5        7.75
-1.3751e-12        -0.5           8
-1.3751e-12        -0.5        8.25
-1.3751e-12        -0.5         8.5
-1.3751e-12        -0.5        8.75
-1.3751e-12        -0.5           9
-1.3751e-12        -0.5        9.25
-1.3751e-12        -0.5         9.5
-1.3751e-12        -0.5        9.75
0.25        -0.5        0.25
0.25        -0.5         0.5
0.25        -0.5        0.75
0.25        -0.5           1
0.25        -0.5        1.25
0.25        -0.5         1.5
0.25        -0.5        1.75
0.25        -0.5           2
0.25        -0.5        2.25
0.25        -0.5         2.5
0.25        -0.5        2.75
0.25        -0.5           3
0.25        -0.5        3.25
0.25        -0.5         3.5
0.25        -0.5        3.75
0.25        -0.5           4
0.25        -0.5        4.25
0.25        -0.5         4.5
0.25        -0.5        4.75
0.25        -0.5           5
0.25        -0.5        5.25
0.25        -0.5         5.5
0.25        -0.5        5.75
0.25        -0.5           6
0.25        -0.5        6.25
0.25        -0.5         6.5
0.25        -0.5        6.75
0.25        -0.5           7
0.25        -0.5        7.25
0.25        -0.5         7.5
0.25        -0.5        7.75
0.25        -0.5           8
0.25        -0.5        8.25
0.25        -0.5         8.5
0.25        -0.5        8.75
0.25        -0.5           9
0.25        -0.5        9.25
0.25        -0.5         9.5
0.25        -0.5        9.75
0.5       -0.25        0.25
0.5       -0.25         0.5
0.5       -0.25        0.75
0.5       -0.25           1
0.5       -0.25        1.25
0.5       -0.25         1.5
0.5       -0.25        1.75
0.5       -0.25           2
0.5       -0.25        2.25
0.5       -0.25         2.5
0.5       -0.25        2.75
0.5       -0.25           3
0.5       -0.25        3.25
0.5       -0.25         3.5
0.5       -0.25        3.75
0.5       -0.25           4
0.5       -0.25        4.25
[...]
POINT_DATA 1025
VECTORS displacement double
0  0  0
0  0  0
0  0  0
0  0  0
0.7706    -0.15328  -0.0075878
0.15328      0.7706  -0.0075878
-0.7706     0.15328  -0.0075878
-0.15328     -0.7706  -0.0075878
0  0  0
0  0  0
0  0  0
0  0  0
0  0  0
0  0  0
0  0  0
0  0  0
0  0  0
0  0  0
0  0  0
0  0  0
0.61627    0.077688   -0.011695
0.46194     0.30866  -0.0071496
0.30761     0.53963  -0.0028247
-0.077688     0.61627   -0.011695
-0.30866     0.46194  -0.0071496
-0.53963     0.30761  -0.0028247
-0.61627   -0.077688   -0.011695
-0.46194    -0.30866  -0.0071496
-0.30761    -0.53963  -0.0028247
0.077688    -0.61627   -0.011695
0.30866    -0.46194  -0.0071496
0.53963    -0.30761  -0.0028247
0.013359   -0.012547 -7.1993e-05
0.02925   -0.027138 -0.00033295
0.045152   -0.040895 -0.00053018
0.061317   -0.054083 -0.00071087
0.077854   -0.066785 -0.00088545
0.094759   -0.078994   -0.001057
0.11202   -0.090698  -0.0012279
0.12962    -0.10189  -0.0013989
0.14753    -0.11255    -0.00157
0.16576    -0.12269  -0.0017412
0.18428    -0.13228  -0.0019123
0.20307    -0.14132  -0.0020835
0.22212     -0.1498  -0.0022546
0.24141    -0.15771  -0.0024258
0.26093    -0.16506  -0.0025969
0.28066    -0.17182  -0.0027681
0.30057      -0.178  -0.0029392
0.32067    -0.18359  -0.0031104
0.34091    -0.18858  -0.0032815
0.3613    -0.19298  -0.0034527
0.3818    -0.19677  -0.0036238
0.40241    -0.19995   -0.003795
0.42311    -0.20253  -0.0039661
0.44387    -0.20449  -0.0041373
0.46468    -0.20584  -0.0043084
0.48552    -0.20657  -0.0044796
0.50637    -0.20669  -0.0046507
0.52722     -0.2062  -0.0048219
0.54804    -0.20509  -0.0049931
0.56882    -0.20336  -0.0051642
0.58955    -0.20103  -0.0053354
0.61019    -0.19808  -0.0055065
0.63074    -0.19452  -0.0056773
0.65117    -0.19036  -0.0058474
0.67147     -0.1856  -0.0060163
0.69163    -0.18024  -0.0061863
0.71161    -0.17427   -0.006372
0.73142    -0.16772  -0.0066201
0.75107    -0.16066  -0.0070013
0.012547    0.013359 -7.1993e-05
0.027138     0.02925 -0.00033295
0.040895    0.045152 -0.00053018
0.054083    0.061317 -0.00071087
0.066785    0.077854 -0.00088545
0.078994    0.094759   -0.001057
0.090698     0.11202  -0.0012279
0.10189     0.12962  -0.0013989
0.11255     0.14753    -0.00157
0.12269     0.16576  -0.0017412
0.13228     0.18428  -0.0019123
0.14132     0.20307  -0.0020835
0.1498     0.22212  -0.0022546
0.15771     0.24141  -0.0024258
0.16506     0.26093  -0.0025969
0.17182     0.28066  -0.0027681
0.178     0.30057  -0.0029392
0.18359     0.32067  -0.0031104
0.18858     0.34091  -0.0032815
0.19298      0.3613  -0.0034527
0.19677      0.3818  -0.0036238
0.19995     0.40241   -0.003795
0.20253     0.42311  -0.0039661
0.20449     0.44387  -0.0041373
0.20584     0.46468  -0.0043084
0.20657     0.48552  -0.0044796
0.20669     0.50637  -0.0046507
0.2062     0.52722  -0.0048219
0.20509     0.54804  -0.0049931
0.20336     0.56882  -0.0051642
0.20103     0.58955  -0.0053354
0.19808     0.61019  -0.0055065
0.19452     0.63074  -0.0056773
0.19036     0.65117  -0.0058474
0.1856     0.67147  -0.0060163
0.18024     0.69163  -0.0061863
0.17427     0.71161   -0.006372
0.16772     0.73142  -0.0066201
0.16066     0.75107  -0.0070013
-0.013359    0.012547 -7.1993e-05
-0.02925    0.027138 -0.00033295
-0.045152    0.040895 -0.00053018
-0.061317    0.054083 -0.00071087
-0.077854    0.066785 -0.00088545
-0.094759    0.078994   -0.001057
-0.11202    0.090698  -0.0012279
-0.12962     0.10189  -0.0013989
-0.14753     0.11255    -0.00157
-0.16576     0.12269  -0.0017412
-0.18428     0.13228  -0.0019123
-0.20307     0.14132  -0.0020835
-0.22212      0.1498  -0.0022546
-0.24141     0.15771  -0.0024258
-0.26093     0.16506  -0.0025969
-0.28066     0.17182  -0.0027681
-0.30057       0.178  -0.0029392
-0.32067     0.18359  -0.0031104
-0.34091     0.18858  -0.0032815
-0.3613     0.19298  -0.0034527
-0.3818     0.19677  -0.0036238
-0.40241     0.19995   -0.003795
-0.42311     0.20253  -0.0039661
-0.44387     0.20449  -0.0041373
-0.46468     0.20584  -0.0043084
-0.48552     0.20657  -0.0044796
-0.50637     0.20669  -0.0046507
-0.52722      0.2062  -0.0048219
-0.54804     0.20509  -0.0049931
-0.56882     0.20336  -0.0051642
-0.58955     0.20103  -0.0053354
-0.61019     0.19808  -0.0055065
-0.63074     0.19452  -0.0056773
-0.65117     0.19036  -0.0058474
-0.67147      0.1856  -0.0060163
-0.69163     0.18024  -0.0061863
-0.71161     0.17427   -0.006372
-0.73142     0.16772  -0.0066201
-0.75107     0.16066  -0.0070013
-0.012547   -0.013359 -7.1993e-05
-0.027138    -0.02925 -0.00033295
-0.040895   -0.045152 -0.00053018
-0.054083   -0.061317 -0.00071087
-0.066785   -0.077854 -0.00088545
-0.078994   -0.094759   -0.001057
-0.090698    -0.11202  -0.0012279
-0.10189    -0.12962  -0.0013989
-0.11255    -0.14753    -0.00157
-0.12269    -0.16576  -0.0017412
-0.13228    -0.18428  -0.0019123
-0.14132    -0.20307  -0.0020835
-0.1498    -0.22212  -0.0022546
-0.15771    -0.24141  -0.0024258
-0.16506    -0.26093  -0.0025969
-0.17182    -0.28066  -0.0027681
-0.178    -0.30057  -0.0029392
-0.18359    -0.32067  -0.0031104
-0.18858    -0.34091  -0.0032815
-0.19298     -0.3613  -0.0034527
-0.19677     -0.3818  -0.0036238
-0.19995    -0.40241   -0.003795
-0.20253    -0.42311  -0.0039661
-0.20449    -0.44387  -0.0041373
-0.20584    -0.46468  -0.0043084
-0.20657    -0.48552  -0.0044796
-0.20669    -0.50637  -0.0046507
-0.2062    -0.52722  -0.0048219
-0.20509    -0.54804  -0.0049931
-0.20336    -0.56882  -0.0051642
-0.20103    -0.58955  -0.0053354
-0.19808    -0.61019  -0.0055065
-0.19452    -0.63074  -0.0056773
-0.19036    -0.65117  -0.0058474
-0.1856    -0.67147  -0.0060163
-0.18024    -0.69163  -0.0061863
-0.17427    -0.71161   -0.006372
-0.16772    -0.73142  -0.0066201
-0.16066    -0.75107  -0.0070013
0  0  0
0  0  0
0  0  0
0  0  0
0  0  0
0  0  0
0  0  0
0  0  0
0  0  0
0.013951  -0.0064588  -0.0037464
0.028791   -0.013024  -0.0047738
0.044044   -0.019359  -0.0049782
0.059465   -0.025211  -0.0051421
0.075044   -0.030606  -0.0053115
0.090775   -0.035538  -0.0054826
0.10664   -0.040002  -0.0056536
0.12264   -0.043997  -0.0058247
0.13874   -0.047518  -0.0059958
0.15495   -0.050562   -0.006167
0.17123   -0.053127  -0.0063381
0.18759    -0.05521  -0.0065093
0.20399    -0.05681  -0.0066805
0.22044   -0.057924  -0.0068516
0.23692   -0.058554  -0.0070228
0.2534   -0.058697  -0.0071939
0.26988   -0.058353  -0.0073651
0.28635   -0.057523  -0.0075362
0.30278   -0.056208  -0.0077074
0.31917   -0.054409  -0.0078785
0.3355   -0.052126  -0.0080497
0.35175   -0.049364  -0.0082208
0.36791   -0.046122   -0.008392
0.38398   -0.042406  -0.0085631
0.39992   -0.038217  -0.0087343
0.41574   -0.033559  -0.0089054
0.43141   -0.028437  -0.0090766
0.44692   -0.022855  -0.0092477
0.46226   -0.016817  -0.0094189
0.47741    -0.01033    -0.00959
0.49237   -0.003398  -0.0097612
0.50712   0.0039721  -0.0099323
0.52164    0.011774   -0.010103
0.53593    0.020001   -0.010274
0.54996    0.028647   -0.010444
0.56374    0.037709   -0.010615
0.57724    0.047186   -0.010791
0.59045    0.057072   -0.010992
0.60338    0.067305   -0.011267
0.014527  0.00036608 -0.00015073
0.028389   0.0010324 -0.00034186
0.043021   0.0020897 -0.00053972
0.057701   0.0035719 -0.00071586
0.072326   0.0054882 -0.00088626
0.086885   0.0078366  -0.0010568
0.10137    0.010614  -0.0012277
0.11576    0.013818  -0.0013988
0.13006    0.017445    -0.00157
0.14424    0.021492  -0.0017412
0.15829    0.025956  -0.0019123
0.17221    0.030833  -0.0020835
0.18598    0.036118  -0.0022546
0.19958    0.041807  -0.0024258
0.21301    0.047895  -0.0025969
0.22626    0.054377  -0.0027681
0.23931    0.061246  -0.0029392
0.25215    0.068498  -0.0031104
0.26477    0.076125  -0.0032815
0.27716    0.084122  -0.0034527
0.28931     0.09248  -0.0036238
0.30121     0.10119   -0.003795
0.31284     0.11025  -0.0039661
0.32421     0.11965  -0.0041373
0.33529     0.12938  -0.0043084
0.34608     0.13944  -0.0044796
0.35656     0.14981  -0.0046507
0.36674     0.16048  -0.0048219
0.3766     0.17145  -0.0049931
0.38613      0.1827  -0.0051642
0.39532     0.19423  -0.0053354
0.40417     0.20603  -0.0055066
0.41267     0.21808  -0.0056778
0.42081     0.23038  -0.0058488
0.42858     0.24291  -0.0060191
0.43597     0.25567  -0.0061869
0.44298     0.26865  -0.0063504
0.44958     0.28184  -0.0065184
0.45583     0.29522  -0.0067531
0.01362   0.0073088   0.0033984
0.027814    0.015225   0.0040761
0.041991    0.023674   0.0039053
0.055924    0.032496   0.0037153
0.069587    0.041725   0.0035403
0.082969    0.051353    0.003369
0.096062    0.061372    0.003198
0.10885    0.071773    0.003027
0.12133    0.082547   0.0028558
0.13349    0.093685   0.0026847
0.14531     0.10518   0.0025135
0.15678     0.11701   0.0023424
0.16791     0.12918   0.0021712
0.17866     0.14167   0.0020001
0.18905     0.15447   0.0018289
0.19905     0.16758   0.0016578
0.20867     0.18097   0.0014866
0.21788     0.19464   0.0013155
0.22668     0.20858   0.0011443
0.23508     0.22277  0.00097316
0.24304      0.2372    0.000802
0.25058     0.25187  0.00063085
0.25769     0.26674   0.0004597
0.26435     0.28182  0.00028855
0.27056     0.29709   0.0001174
0.27632     0.31254 -5.3757e-05
0.28162     0.32815 -0.00022491
0.28646     0.34391 -0.00039606
0.29083     0.35981 -0.00056722
0.29473     0.37582 -0.00073837
0.29816     0.39195 -0.00090953
0.30111     0.40817  -0.0010807
0.30358     0.42447  -0.0012517
0.30557     0.44084  -0.0014225
0.30707     0.45725  -0.0015926
0.30808     0.47371  -0.0017622
0.3086     0.49018  -0.0019358
0.30862     0.50667  -0.0021317
0.30819     0.52318  -0.0024038
0.0064588    0.013951  -0.0037464
0.013024    0.028791  -0.0047738
0.019359    0.044044  -0.0049782
0.025211    0.059465  -0.0051421
0.030606    0.075044  -0.0053115
0.035538    0.090775  -0.0054826
0.040002     0.10664  -0.0056536
0.043997     0.12264  -0.0058247
0.047518     0.13874  -0.0059958
0.050562     0.15495   -0.006167
0.053127     0.17123  -0.0063381
0.05521     0.18759  -0.0065093
0.05681     0.20399  -0.0066805
0.057924     0.22044  -0.0068516
0.058554     0.23692  -0.0070228
0.058697      0.2534  -0.0071939
0.058353     0.26988  -0.0073651
0.057523     0.28635  -0.0075362
0.056208     0.30278  -0.0077074
0.054409     0.31917  -0.0078785
0.052126      0.3355  -0.0080497
0.049364     0.35175  -0.0082208
0.046122     0.36791   -0.008392
0.042406     0.38398  -0.0085631
0.038217     0.39992  -0.0087343
0.033559     0.41574  -0.0089054
0.028437     0.43141  -0.0090766
0.022855     0.44692  -0.0092477
0.016817     0.46226  -0.0094189
0.01033     0.47741    -0.00959
0.003398     0.49237  -0.0097612
-0.0039721     0.50712  -0.0099323
-0.011774     0.52164   -0.010103
-0.020001     0.53593   -0.010274
-0.028647     0.54996   -0.010444
-0.037709     0.56374   -0.010615
-0.047186     0.57724   -0.010791
-0.057072     0.59045   -0.010992
-0.067305     0.60338   -0.011267
-0.00036608    0.014527 -0.00015073
-0.0010324    0.028389 -0.00034186
-0.0020897    0.043021 -0.00053972
-0.0035719    0.057701 -0.00071586
-0.0054882    0.072326 -0.00088626
-0.0078366    0.086885  -0.0010568
-0.010614     0.10137  -0.0012277
-0.013818     0.11576  -0.0013988
-0.017445     0.13006    -0.00157
-0.021492     0.14424  -0.0017412
-0.025956     0.15829  -0.0019123
-0.030833     0.17221  -0.0020835
-0.036118     0.18598  -0.0022546
-0.041807     0.19958  -0.0024258
-0.047895     0.21301  -0.0025969
-0.054377     0.22626  -0.0027681
-0.061246     0.23931  -0.0029392
-0.068498     0.25215  -0.0031104
-0.076125     0.26477  -0.0032815
-0.084122     0.27716  -0.0034527
-0.09248     0.28931  -0.0036238
-0.10119     0.30121   -0.003795
-0.11025     0.31284  -0.0039661
-0.11965     0.32421  -0.0041373
-0.12938     0.33529  -0.0043084
-0.13944     0.34608  -0.0044796
-0.14981     0.35656  -0.0046507
-0.16048     0.36674  -0.0048219
-0.17145      0.3766  -0.0049931
-0.1827     0.38613  -0.0051642
-0.19423     0.39532  -0.0053354
-0.20603     0.40417  -0.0055066
-0.21808     0.41267  -0.0056778
-0.23038     0.42081  -0.0058488
-0.24291     0.42858  -0.0060191
-0.25567     0.43597  -0.0061869
-0.26865     0.44298  -0.0063504
-0.28184     0.44958  -0.0065184
-0.29522     0.45583  -0.0067531
-0.0073088     0.01362   0.0033984
-0.015225    0.027814   0.0040761
-0.023674    0.041991   0.0039053
-0.032496    0.055924   0.0037153
-0.041725    0.069587   0.0035403
-0.051353    0.082969    0.003369
-0.061372    0.096062    0.003198
-0.071773     0.10885    0.003027
-0.082547     0.12133   0.0028558
-0.093685     0.13349   0.0026847
-0.10518     0.14531   0.0025135
-0.11701     0.15678   0.0023424
-0.12918     0.16791   0.0021712
-0.14167     0.17866   0.0020001
-0.15447     0.18905   0.0018289
-0.16758     0.19905   0.0016578
-0.18097     0.20867   0.0014866
-0.19464     0.21788   0.0013155
-0.20858     0.22668   0.0011443
-0.22277     0.23508  0.00097316
-0.2372     0.24304    0.000802
-0.25187     0.25058  0.00063085
-0.26674     0.25769   0.0004597
-0.28182     0.26435  0.00028855
-0.29709     0.27056   0.0001174
-0.31254     0.27632 -5.3757e-05
-0.32815     0.28162 -0.00022491
-0.34391     0.28646 -0.00039606
-0.35981     0.29083 -0.00056722
-0.37582     0.29473 -0.00073837
-0.39195     0.29816 -0.00090953
-0.40817     0.30111  -0.0010807
-0.42447     0.30358  -0.0012517
-0.44084     0.30557  -0.0014225
-0.45725     0.30707  -0.0015926
-0.47371     0.30808  -0.0017622
-0.49018      0.3086  -0.0019358
-0.50667     0.30862  -0.0021317
-0.52318     0.30819  -0.0024038
-0.013951   0.0064588  -0.0037464
-0.028791    0.013024  -0.0047738
-0.044044    0.019359  -0.0049782
-0.059465    0.025211  -0.0051421
-0.075044    0.030606  -0.0053115
-0.090775    0.035538  -0.0054826
-0.10664    0.040002  -0.0056536
-0.12264    0.043997  -0.0058247
-0.13874    0.047518  -0.0059958
-0.15495    0.050562   -0.006167
-0.17123    0.053127  -0.0063381
-0.18759     0.05521  -0.0065093
-0.20399     0.05681  -0.0066805
-0.22044    0.057924  -0.0068516
-0.23692    0.058554  -0.0070228
-0.2534    0.058697  -0.0071939
-0.26988    0.058353  -0.0073651
-0.28635    0.057523  -0.0075362
-0.30278    0.056208  -0.0077074
-0.31917    0.054409  -0.0078785
-0.3355    0.052126  -0.0080497
-0.35175    0.049364  -0.0082208
-0.36791    0.046122   -0.008392
-0.38398    0.042406  -0.0085631
-0.39992    0.038217  -0.0087343
-0.41574    0.033559  -0.0089054
-0.43141    0.028437  -0.0090766
-0.44692    0.022855  -0.0092477
-0.46226    0.016817  -0.0094189
-0.47741     0.01033    -0.00959
-0.49237    0.003398  -0.0097612
-0.50712  -0.0039721  -0.0099323
-0.52164   -0.011774   -0.010103
-0.53593   -0.020001   -0.010274
-0.54996   -0.028647   -0.010444
-0.56374   -0.037709   -0.010615
-0.57724   -0.047186   -0.010791
-0.59045   -0.057072   -0.010992
-0.60338   -0.067305   -0.011267
-0.014527 -0.00036608 -0.00015073
-0.028389  -0.0010324 -0.00034186
-0.043021  -0.0020897 -0.00053972
-0.057701  -0.0035719 -0.00071586
-0.072326  -0.0054882 -0.00088626
-0.086885  -0.0078366  -0.0010568
-0.10137   -0.010614  -0.0012277
-0.11576   -0.013818  -0.0013988
-0.13006   -0.017445    -0.00157
-0.14424   -0.021492  -0.0017412
-0.15829   -0.025956  -0.0019123
-0.17221   -0.030833  -0.0020835
-0.18598   -0.036118  -0.0022546
-0.19958   -0.041807  -0.0024258
-0.21301   -0.047895  -0.0025969
-0.22626   -0.054377  -0.0027681
-0.23931   -0.061246  -0.0029392
-0.25215   -0.068498  -0.0031104
-0.26477   -0.076125  -0.0032815
-0.27716   -0.084122  -0.0034527
-0.28931    -0.09248  -0.0036238
-0.30121    -0.10119   -0.003795
-0.31284    -0.11025  -0.0039661
-0.32421    -0.11965  -0.0041373
-0.33529    -0.12938  -0.0043084
-0.34608    -0.13944  -0.0044796
-0.35656    -0.14981  -0.0046507
-0.36674    -0.16048  -0.0048219
-0.3766    -0.17145  -0.0049931
-0.38613     -0.1827  -0.0051642
-0.39532    -0.19423  -0.0053354
-0.40417    -0.20603  -0.0055066
-0.41267    -0.21808  -0.0056778
-0.42081    -0.23038  -0.0058488
-0.42858    -0.24291  -0.0060191
-0.43597    -0.25567  -0.0061869
-0.44298    -0.26865  -0.0063504
-0.44958    -0.28184  -0.0065184
-0.45583    -0.29522  -0.0067531
-0.01362  -0.0073088   0.0033984
-0.027814   -0.015225   0.0040761
-0.041991   -0.023674   0.0039053
-0.055924   -0.032496   0.0037153
-0.069587   -0.041725   0.0035403
-0.082969   -0.051353    0.003369
-0.096062   -0.061372    0.003198
-0.10885   -0.071773    0.003027
-0.12133   -0.082547   0.0028558
-0.13349   -0.093685   0.0026847
-0.14531    -0.10518   0.0025135
-0.15678    -0.11701   0.0023424
-0.16791    -0.12918   0.0021712
-0.17866    -0.14167   0.0020001
-0.18905    -0.15447   0.0018289
-0.19905    -0.16758   0.0016578
-0.20867    -0.18097   0.0014866
-0.21788    -0.19464   0.0013155
-0.22668    -0.20858   0.0011443
-0.23508    -0.22277  0.00097316
-0.24304     -0.2372    0.000802
-0.25058    -0.25187  0.00063085
-0.25769    -0.26674   0.0004597
-0.26435    -0.28182  0.00028855
-0.27056    -0.29709   0.0001174
-0.27632    -0.31254 -5.3757e-05
-0.28162    -0.32815 -0.00022491
-0.28646    -0.34391 -0.00039606
-0.29083    -0.35981 -0.00056722
-0.29473    -0.37582 -0.00073837
-0.29816    -0.39195 -0.00090953
-0.30111    -0.40817  -0.0010807
-0.30358    -0.42447  -0.0012517
-0.30557    -0.44084  -0.0014225
-0.30707    -0.45725  -0.0015926
-0.30808    -0.47371  -0.0017622
-0.3086    -0.49018  -0.0019358
-0.30862    -0.50667  -0.0021317
-0.30819    -0.52318  -0.0024038
-0.0064588   -0.013951  -0.0037464
-0.013024   -0.028791  -0.0047738
-0.019359   -0.044044  -0.0049782
-0.025211   -0.059465  -0.0051421
-0.030606   -0.075044  -0.0053115
-0.035538   -0.090775  -0.0054826
-0.040002    -0.10664  -0.0056536
-0.043997    -0.12264  -0.0058247
-0.047518    -0.13874  -0.0059958
-0.050562    -0.15495   -0.006167
-0.053127    -0.17123  -0.0063381
-0.05521    -0.18759  -0.0065093
-0.05681    -0.20399  -0.0066805
-0.057924    -0.22044  -0.0068516
-0.058554    -0.23692  -0.0070228
-0.058697     -0.2534  -0.0071939
-0.058353    -0.26988  -0.0073651
-0.057523    -0.28635  -0.0075362
-0.056208    -0.30278  -0.0077074
-0.054409    -0.31917  -0.0078785
-0.052126     -0.3355  -0.0080497
-0.049364    -0.35175  -0.0082208
-0.046122    -0.36791   -0.008392
-0.042406    -0.38398  -0.0085631
-0.038217    -0.39992  -0.0087343
-0.033559    -0.41574  -0.0089054
-0.028437    -0.43141  -0.0090766
-0.022855    -0.44692  -0.0092477
-0.016817    -0.46226  -0.0094189
-0.01033    -0.47741    -0.00959
-0.003398    -0.49237  -0.0097612
0.0039721    -0.50712  -0.0099323
0.011774    -0.52164   -0.010103
0.020001    -0.53593   -0.010274
0.028647    -0.54996   -0.010444
0.037709    -0.56374   -0.010615
0.047186    -0.57724   -0.010791
0.057072    -0.59045   -0.010992
0.067305    -0.60338   -0.011267
0.00036608   -0.014527 -0.00015073
0.0010324   -0.028389 -0.00034186
0.0020897   -0.043021 -0.00053972
0.0035719   -0.057701 -0.00071586
0.0054882   -0.072326 -0.00088626
0.0078366   -0.086885  -0.0010568
0.010614    -0.10137  -0.0012277
0.013818    -0.11576  -0.0013988
0.017445    -0.13006    -0.00157
0.021492    -0.14424  -0.0017412
0.025956    -0.15829  -0.0019123
0.030833    -0.17221  -0.0020835
0.036118    -0.18598  -0.0022546
0.041807    -0.19958  -0.0024258
0.047895    -0.21301  -0.0025969
0.054377    -0.22626  -0.0027681
0.061246    -0.23931  -0.0029392
0.068498    -0.25215  -0.0031104
0.076125    -0.26477  -0.0032815
0.084122    -0.27716  -0.0034527
0.09248    -0.28931  -0.0036238
0.10119    -0.30121   -0.003795
0.11025    -0.31284  -0.0039661
0.11965    -0.32421  -0.0041373
0.12938    -0.33529  -0.0043084
0.13944    -0.34608  -0.0044796
0.14981    -0.35656  -0.0046507
0.16048    -0.36674  -0.0048219
0.17145     -0.3766  -0.0049931
0.1827    -0.38613  -0.0051642
0.19423    -0.39532  -0.0053354
0.20603    -0.40417  -0.0055066
0.21808    -0.41267  -0.0056778
0.23038    -0.42081  -0.0058488
0.24291    -0.42858  -0.0060191
0.25567    -0.43597  -0.0061869
0.26865    -0.44298  -0.0063504
0.28184    -0.44958  -0.0065184
0.29522    -0.45583  -0.0067531