# vtk DataFile Version 3.0
VTK Output
ASCII
DATASET UNSTRUCTURED_GRID

POINTS 1025 float
-0.5        -0.5           0
0.5        -0.5           0
0.5         0.5           0
-0.5         0.5           0
-0.5         -0.5           10
0.5         -0.5           10
0.5          0.5           10
-0.5          0.5           10
-0.25        -0.5           0
-1.3751e-12        -0.5           0
0.25        -0.5           0
0.5       -0.25           0
0.5 -1.3751e-12           0
0.5        0.25           0
0.25         0.5           0
1.3751e-12         0.5           0
-0.25         0.5           0
-0.5        0.25           0
-0.5  1.3751e-12           0
-0.5       -0.25           0
-0.25         -0.5           10
-1.37512e-12         -0.5           10
0.25         -0.5           10
0.5        -0.25           10
0.5 -1.37512e-12           10
0.5         0.25           10
0.25          0.5           10
1.37512e-12          0.5           10
-0.25          0.5           10
-0.5         0.25           10
-0.5  1.37512e-12           10
-0.5        -0.25           10
-0.5        -0.5        0.25
-0.5        -0.5         0.5
-0.5        -0.5        0.75
-0.5        -0.5           1
-0.5        -0.5        1.25
-0.5        -0.5         1.5
-0.5        -0.5        1.75
-0.5        -0.5           2
-0.5        -0.5        2.25
-0.5        -0.5         2.5
-0.5        -0.5        2.75
-0.5        -0.5           3
-0.5        -0.5        3.25
-0.5        -0.5         3.5
-0.5        -0.5        3.75
-0.5        -0.5           4
-0.5        -0.5        4.25
-0.5        -0.5         4.5
-0.5        -0.5        4.75
-0.5        -0.5           5
-0.5        -0.5        5.25
-0.5        -0.5         5.5
-0.5        -0.5        5.75
-0.5        -0.5           6
-0.5        -0.5        6.25
-0.5        -0.5         6.5
-0.5        -0.5        6.75
-0.5        -0.5           7
-0.5        -0.5        7.25
-0.5        -0.5         7.5
-0.5        -0.5        7.75
-0.5        -0.5           8
-0.5        -0.5        8.25
-0.5        -0.5         8.5
-0.5        -0.5        8.75
-0.5        -0.5           9
-0.5        -0.5        9.25
-0.5        -0.5         9.5
-0.5        -0.5        9.75
0.5        -0.5        0.25
0.5        -0.5         0.5
0.5        -0.5        0.75
0.5        -0.5           1
0.5        -0.5        1.25
0.5        -0.5         1.5
0.5        -0.5        1.75
0.5        -0.5           2
0.5        -0.5        2.25
0.5        -0.5         2.5
0.5        -0.5        2.75
0.5        -0.5           3
0.5        -0.5        3.25
0.5        -0.5         3.5
0.5        -0.5        3.75
0.5        -0.5           4
0.5        -0.5        4.25
0.5        -0.5         4.5
0.5        -0.5        4.75
0.5        -0.5           5
0.5        -0.5        5.25
0.5        -0.5         5.5
0.5        -0.5        5.75
0.5        -0.5           6
0.5        -0.5        6.25
0.5        -0.5         6.5
0.5        -0.5        6.75
0.5        -0.5           7
0.5        -0.5        7.25
0.5        -0.5         7.5
0.5        -0.5        7.75
0.5        -0.5           8
0.5        -0.5        8.25
0.5        -0.5         8.5
0.5        -0.5        8.75
0.5        -0.5           9
0.5        -0.5        9.25
0.5        -0.5         9.5
0.5        -0.5        9.75
0.5         0.5        0.25
0.5         0.5         0.5
0.5         0.5        0.75
0.5         0.5           1
0.5         0.5        1.25
0.5         0.5         1.5
0.5         0.5        1.75
0.5         0.5           2
0.5         0.5        2.25
0.5         0.5         2.5
0.5         0.5        2.75
0.5         0.5           3
0.5         0.5        3.25
0.5         0.5         3.5
0.5         0.5        3.75
0.5         0.5           4
0.5         0.5        4.25
0.5         0.5         4.5
0.5         0.5        4.75
0.5         0.5           5
0.5         0.5        5.25
0.5         0.5         5.5
0.5         0.5        5.75
0.5         0.5           6
0.5         0.5        6.25
0.5         0.5         6.5
0.5         0.5        6.75
0.5         0.5           7
0.5         0.5        7.25
0.5         0.5         7.5
0.5         0.5        7.75
0.5         0.5           8
0.5         0.5        8.25
0.5         0.5         8.5
0.5         0.5        8.75
0.5         0.5           9
0.5         0.5        9.25
0.5         0.5         9.5
0.5         0.5        9.75
-0.5         0.5        0.25
-0.5         0.5         0.5
-0.5         0.5        0.75
-0.5         0.5           1
-0.5         0.5        1.25
-0.5         0.5         1.5
-0.5         0.5        1.75
-0.5         0.5           2
-0.5         0.5        2.25
-0.5         0.5         2.5
-0.5         0.5        2.75
-0.5         0.5           3
-0.5         0.5        3.25
-0.5         0.5         3.5
-0.5         0.5        3.75
-0.5         0.5           4
-0.5         0.5        4.25
-0.5         0.5         4.5
-0.5         0.5        4.75
-0.5         0.5           5
-0.5         0.5        5.25
-0.5         0.5         5.5
-0.5         0.5        5.75
-0.5         0.5           6
-0.5         0.5        6.25
-0.5         0.5         6.5
-0.5         0.5        6.75
-0.5         0.5           7
-0.5         0.5        7.25
-0.5         0.5         7.5
-0.5         0.5        7.75
-0.5         0.5           8
-0.5         0.5        8.25
-0.5         0.5         8.5
-0.5         0.5        8.75
-0.5         0.5           9
-0.5         0.5        9.25
-0.5         0.5         9.5
-0.5         0.5        9.75
-0.25       -0.25           0
-0.25  6.8756e-13           0
-0.25        0.25           0
-6.8756e-13       -0.25           0
-3.7821e-24           0           0
6.8756e-13        0.25           0
0.25       -0.25           0
0.25 -6.8756e-13           0
0.25        0.25           0
-0.25        -0.5        0.25
-0.25        -0.5         0.5
-0.25        -0.5        0.75
-0.25        -0.5           1
-0.25        -0.5        1.25
-0.25        -0.5         1.5
-0.25        -0.5        1.75
-0.25        -0.5           2
-0.25        -0.5        2.25
-0.25        -0.5         2.5
-0.25        -0.5        2.75
-0.25        -0.5           3
-0.25        -0.5        3.25
-0.25        -0.5         3.5
-0.25        -0.5        3.75
-0.25        -0.5           4
-0.25        -0.5        4.25
-0.25        -0.5         4.5
-0.25        -0.5        4.75
-0.25        -0.5           5
-0.25        -0.5        5.25
-0.25        -0.5         5.5
-0.25        -0.5        5.75
-0.25        -0.5           6
-0.25        -0.5        6.25
-0.25        -0.5         6.5
-0.25        -0.5        6.75
-0.25        -0.5           7
-0.25        -0.5        7.25
-0.25        -0.5         7.5
-0.25        -0.5        7.75
-0.25        -0.5           8
-0.25        -0.5        8.25
-0.25        -0.5         8.5
-0.25        -0.5        8.75
-0.25        -0.5           9
-0.25        -0.5        9.25
-0.25        -0.5         9.5
-0.25        -0.5        9.75
-1.3751e-12        -0.5        0.25
-1.3751e-12        -0.5         0.5
-1.3751e-12        -0.5        0.75
-1.3751e-12        -0.5           1
-1.3751e-12        -0.5        1.25
-1.3751e-12        -0.5         1.5
-1.3751e-12        -0.5        1.75
-1.3751e-12        -0.5           2
-1.3751e-12        -0.5        2.25
-1.3751e-12        -0.5         2.5
-1.3751e-12        -0.5        2.75
-1.3751e-12        -0.5           3
-1.3751e-12        -0.5        3.25
-1.3751e-12        -0.5         3.5
-1.3751e-12        -0.5        3.75
-1.3751e-12        -0.5           4
-1.3751e-12        -0.5        4.25
-1.3751e-12        -0.5         4.5
-1.3751e-12        -0.5        4.75
-1.3751e-12        -0.5           5
-1.3751e-12        -0.5        5.25
-1.3751e-12        -0.5         5.5
-1.3751e-12        -0.5        5.75
-1.3751e-12        -0.5           6
-1.3751e-12        -0.5        6.25
-1.3751e-12        -0.5         6.5
-1.3751e-12        -0.5        6.75
-1.3751e-12        -0.5           7
-1.3751e-12        -0.5        7.25
-1.3751e-12        -0.5         7.5
-1.3751e-12        -0.5        7.75
-1.3751e-12        -0.5           8
-1.3751e-12        -0.5        8.25
-1.3751e-12        -0.5         8.5
-1.3751e-12        -0.5        8.75
-1.3751e-12        -0.5           9
-1.3751e-12        -0.5        9.25
-1.3751e-12        -0.5         9.5
-1.3751e-12        -0.5        9.75
0.25        -0.5        0.25
0.25        -0.5         0.5
0.25        -0.5        0.75
0.25        -0.5           1
0.25        -0.5        1.25
0.25        -0.5         1.5
0.25        -0.5        1.75
0.25        -0.5           2
0.25        -0.5        2.25
0.25        -0.5         2.5
0.25        -0.5        2.75
0.25        -0.5           3
0.25        -0.5        3.25
0.25        -0.5         3.5
0.25        -0.5        3.75
0.25        -0.5           4
0.25        -0.5        4.25
0.25        -0.5         4.5
0.25        -0.5        4.75
0.25        -0.5           5
0.25        -0.5        5.25
0.25        -0.5         5.5
0.25        -0.5        5.75
0.25        -0.5           6
0.25        -0.5        6.25
0.25        -0.5         6.5
0.25        -0.5        6.75
0.25        -0.5           7
0.25        -0.5        7.25
0.25        -0.5         7.5
0.25        -0.5        7.75
0.25        -0.5           8
0.25        -0.5        8.25
0.25        -0.5         8.5
0.25        -0.5        8.75
0.25        -0.5           9
0.25        -0.5        9.25
0.25        -0.5         9.5
0.25        -0.5        9.75
0.5       -0.25        0.25
0.5       -0.25         0.5
0.5       -0.25        0.75
0.5       -0.25           1
0.5       -0.25        1.25
0.5       -0.25         1.5
0.5       -0.25        1.75
0.5       -0.25           2
0.5       -0.25        2.25
0.5       -0.25         2.5
0.5       -0.25        2.75
0.5       -0.25           3
0.5       -0.25        3.25
0.5       -0.25         3.5
0.5       -0.25        3.75
0.5       -0.25           4
0.5       -0.25        4.25
[...]
POINT_DATA 1025
VECTORS displacement double
0  0  0
0  0  0
0  0  0
0  0  0
1           1   -0.053698
-1           1   -0.053698
-1          -1   -0.053698
1          -1   -0.053698
0  0  0
0  0  0
0  0  0
0  0  0
0  0  0
0  0  0
0  0  0
0  0  0
0  0  0
0  0  0
0  0  0
0  0  0
0.5           1     -0.0633
2.7503e-12           1   -0.050541
-0.5           1    -0.03936
-1         0.5     -0.0633
-1  2.7496e-12   -0.050541
-1        -0.5    -0.03936
-0.5          -1     -0.0633
-2.7491e-12          -1   -0.050541
0.5          -1    -0.03936
1        -0.5     -0.0633
1 -2.7507e-12   -0.050541
1         0.5    -0.03936
0.037107   -0.031384 -0.00049711
0.081836    -0.06695  -0.0023197
0.12816   -0.098197  -0.0037262
0.17638    -0.12559  -0.0050083
0.22655     -0.1491  -0.0062412
0.27841    -0.16859  -0.0074512
0.33164    -0.18394  -0.0086569
0.38591    -0.19505  -0.0098631
0.44088    -0.20187    -0.01107
0.49622    -0.20434   -0.012278
0.55159    -0.20246   -0.013485
0.60664    -0.19623   -0.014693
0.66102     -0.1857     -0.0159
0.71441    -0.17093   -0.017108
0.76648      -0.152   -0.018316
0.81689    -0.12904   -0.019523
0.86535    -0.10219   -0.020731
0.91154   -0.071618   -0.021938
0.95519   -0.037507   -0.023146
0.99603 -7.2125e-05   -0.024353
1.0338    0.040456   -0.025561
1.0683    0.083828   -0.026769
1.0992     0.12977   -0.027976
1.1264     0.17801   -0.029184
1.1498     0.22824   -0.030391
1.1692     0.28014   -0.031599
1.1844     0.33341   -0.032806
1.1953     0.38771   -0.034014
1.202      0.4427   -0.035222
1.2044     0.49805   -0.036429
1.2023     0.55341   -0.037637
1.196     0.60844   -0.038844
1.1853      0.6628   -0.040049
1.1704     0.71615   -0.041248
1.1513     0.76816   -0.042437
1.1282      0.8185   -0.043633
1.1011     0.86689   -0.044945
1.0701     0.91313    -0.04672
1.036      0.9573   -0.049474
0.031384    0.037107 -0.00049711
0.06695    0.081836  -0.0023197
0.098197     0.12816  -0.0037262
0.12559     0.17638  -0.0050083
0.1491     0.22655  -0.0062412
0.16859     0.27841  -0.0074512
0.18394     0.33164  -0.0086569
0.19505     0.38591  -0.0098631
0.20187     0.44088    -0.01107
0.20434     0.49622   -0.012278
0.20246     0.55159   -0.013485
0.19623     0.60664   -0.014693
0.1857     0.66102     -0.0159
0.17093     0.71441   -0.017108
0.152     0.76648   -0.018316
0.12904     0.81689   -0.019523
0.10219     0.86535   -0.020731
0.071618     0.91154   -0.021938
0.037507     0.95519   -0.023146
7.2125e-05     0.99603   -0.024353
-0.040456      1.0338   -0.025561
-0.083828      1.0683   -0.026769
-0.12977      1.0992   -0.027976
-0.17801      1.1264   -0.029184
-0.22824      1.1498   -0.030391
-0.28014      1.1692   -0.031599
-0.33341      1.1844   -0.032806
-0.38771      1.1953   -0.034014
-0.4427       1.202   -0.035222
-0.49805      1.2044   -0.036429
-0.55341      1.2023   -0.037637
-0.60844       1.196   -0.038844
-0.6628      1.1853   -0.040049
-0.71615      1.1704   -0.041248
-0.76816      1.1513   -0.042437
-0.8185      1.1282   -0.043633
-0.86689      1.1011   -0.044945
-0.91313      1.0701    -0.04672
-0.9573       1.036   -0.049474
-0.037107    0.031384 -0.00049711
-0.081836     0.06695  -0.0023197
-0.12816    0.098197  -0.0037262
-0.17638     0.12559  -0.0050083
-0.22655      0.1491  -0.0062412
-0.27841     0.16859  -0.0074512
-0.33164     0.18394  -0.0086569
-0.38591     0.19505  -0.0098631
-0.44088     0.20187    -0.01107
-0.49622     0.20434   -0.012278
-0.55159     0.20246   -0.013485
-0.60664     0.19623   -0.014693
-0.66102      0.1857     -0.0159
-0.71441     0.17093   -0.017108
-0.76648       0.152   -0.018316
-0.81689     0.12904   -0.019523
-0.86535     0.10219   -0.020731
-0.91154    0.071618   -0.021938
-0.95519    0.037507   -0.023146
-0.99603  7.2125e-05   -0.024353
-1.0338   -0.040456   -0.025561
-1.0683   -0.083828   -0.026769
-1.0992    -0.12977   -0.027976
-1.1264    -0.17801   -0.029184
-1.1498    -0.22824   -0.030391
-1.1692    -0.28014   -0.031599
-1.1844    -0.33341   -0.032806
-1.1953    -0.38771   -0.034014
-1.202     -0.4427   -0.035222
-1.2044    -0.49805   -0.036429
-1.2023    -0.55341   -0.037637
-1.196    -0.60844   -0.038844
-1.1853     -0.6628   -0.040049
-1.1704    -0.71615   -0.041248
-1.1513    -0.76816   -0.042437
-1.1282     -0.8185   -0.043633
-1.1011    -0.86689   -0.044945
-1.0701    -0.91313    -0.04672
-1.036     -0.9573   -0.049474
-0.031384   -0.037107 -0.00049711
-0.06695   -0.081836  -0.0023197
-0.098197    -0.12816  -0.0037262
-0.12559    -0.17638  -0.0050083
-0.1491    -0.22655  -0.0062412
-0.16859    -0.27841  -0.0074512
-0.18394    -0.33164  -0.0086569
-0.19505    -0.38591  -0.0098631
-0.20187    -0.44088    -0.01107
-0.20434    -0.49622   -0.012278
-0.20246    -0.55159   -0.013485
-0.19623    -0.60664   -0.014693
-0.1857    -0.66102     -0.0159
-0.17093    -0.71441   -0.017108
-0.152    -0.76648   -0.018316
-0.12904    -0.81689   -0.019523
-0.10219    -0.86535   -0.020731
-0.071618    -0.91154   -0.021938
-0.037507    -0.95519   -0.023146
-7.2125e-05    -0.99603   -0.024353
0.040456     -1.0338   -0.025561
0.083828     -1.0683   -0.026769
0.12977     -1.0992   -0.027976
0.17801     -1.1264   -0.029184
0.22824     -1.1498   -0.030391
0.28014     -1.1692   -0.031599
0.33341     -1.1844   -0.032806
0.38771     -1.1953   -0.034014
0.4427      -1.202   -0.035222
0.49805     -1.2044   -0.036429
0.55341     -1.2023   -0.037637
0.60844      -1.196   -0.038844
0.6628     -1.1853   -0.040049
0.71615     -1.1704   -0.041248
0.76816     -1.1513   -0.042437
0.8185     -1.1282   -0.043633
0.86689     -1.1011   -0.044945
0.91313     -1.0701    -0.04672
0.9573      -1.036   -0.049474
0  0  0
0  0  0
0  0  0
0  0  0
0  0  0
0  0  0
0  0  0
0  0  0
0  0  0
0.03754   -0.015205   -0.010693
0.078094   -0.029563   -0.014215
0.12036   -0.041486   -0.015616
0.16337   -0.050005   -0.016833
0.20687   -0.055129   -0.018037
0.25063   -0.056808   -0.019243
0.29439   -0.055038   -0.020449
0.33787   -0.049833   -0.021656
0.38081   -0.041227   -0.022864
0.42294   -0.029273   -0.024071
0.464   -0.014045   -0.025279
0.50374   0.0043632   -0.026486
0.5419    0.025837   -0.027694
0.57826    0.050243   -0.028901
0.61259    0.077432   -0.030109
0.64468     0.10723   -0.031316
0.67433     0.13947   -0.032524
0.70135     0.17393   -0.033732
0.72558     0.21041   -0.034939
0.74687     0.24868   -0.036147
0.76508      0.2885   -0.037354
0.78011     0.32964   -0.038562
0.79186     0.37182   -0.039769
0.80025      0.4148   -0.040977
0.80525     0.45831   -0.042185
0.80681     0.50208   -0.043392
0.80492     0.54583     -0.0446
0.7996      0.5893   -0.045807
0.79089     0.63221   -0.047015
0.77882     0.67431   -0.048222
0.76349     0.71533    -0.04943
0.74498     0.75502   -0.050637
0.72341     0.79313   -0.051844
0.69891     0.82943   -0.053048
0.67162     0.86368   -0.054249
0.64169     0.89567   -0.055454
0.60922     0.92518   -0.056712
0.57435     0.95205   -0.058182
0.53762     0.97628    -0.06017
0.038328   0.0025641  -0.0010413
0.07494   0.0072643  -0.0023966
0.11324    0.014702  -0.0037986
0.15107    0.025081  -0.0050442
0.18795    0.038409  -0.0062468
0.22365    0.054603  -0.0074493
0.25797    0.073556  -0.0086552
0.29068    0.095148  -0.0098625
0.3216     0.11924    -0.01107
0.35053      0.1457   -0.012278
0.37729     0.17434   -0.013485
0.40171       0.205   -0.014693
0.42365     0.23748     -0.0159
0.44298     0.27158   -0.017108
0.45956      0.3071   -0.018316
0.47329     0.34382   -0.019523
0.4841      0.3815   -0.020731
0.49192     0.41991   -0.021938
0.49669     0.45881   -0.023146
0.49839     0.49798   -0.024353
0.49701     0.53715   -0.025561
0.49256     0.57609   -0.026769
0.48505     0.61457   -0.027976
0.47455     0.65233   -0.029184
0.46111     0.68916   -0.030391
0.44482     0.72481   -0.031599
0.42577     0.75907   -0.032806
0.4041     0.79173   -0.034014
0.37992     0.82259   -0.035221
0.35339     0.85144   -0.036429
0.32468     0.87813   -0.037637
0.29396     0.90248   -0.038845
0.26142     0.92434   -0.040053
0.22727     0.94357   -0.041259
0.19171     0.96005   -0.042459
0.15494     0.97366    -0.04364
0.11716     0.98427   -0.044789
0.078533     0.99175    -0.04598
0.039302     0.99638   -0.047675
0.03521    0.021175   0.0082666
0.071193    0.045052   0.0093211
0.1059    0.071838   0.0080669
0.13848     0.10114    0.006781
0.16865      0.1329   0.0055533
0.19621     0.16694   0.0043442
0.22101     0.20303   0.0031375
0.24289     0.24097   0.0019305
0.26172      0.2805  0.00072316
0.27739      0.3214 -0.00048436
0.28979      0.3634  -0.0016919
0.29886     0.40624  -0.0028995
0.30453     0.44966  -0.0041071
0.30677      0.4934  -0.0053146
0.30557     0.53718  -0.0065222
0.30093     0.58072  -0.0077298
0.29288     0.62377  -0.0089373
0.28147     0.66605   -0.010145
0.26678      0.7073   -0.011352
0.24889     0.74728    -0.01256
0.22791     0.78572   -0.013768
0.20398     0.82239   -0.014975
0.17724     0.85707   -0.016183
0.14786     0.88955    -0.01739
0.11601     0.91961   -0.018598
0.081906     0.94707   -0.019805
0.045745     0.97178   -0.021013
0.0077538     0.99356   -0.022221
-0.031831      1.0123   -0.023428
-0.072766      1.0278   -0.024636
-0.1148      1.0401   -0.025843
-0.15766      1.0491   -0.027051
-0.2011      1.0547   -0.028258
-0.24484      1.0568   -0.029462
-0.28861      1.0555   -0.030661
-0.33213      1.0507   -0.031851
-0.37515      1.0424   -0.033061
-0.41745      1.0307   -0.034422
-0.45915      1.0158   -0.036371
0.015205     0.03754   -0.010693
0.029563    0.078094   -0.014215
0.041486     0.12036   -0.015616
0.050005     0.16337   -0.016833
0.055129     0.20687   -0.018037
0.056808     0.25063   -0.019243
0.055038     0.29439   -0.020449
0.049833     0.33787   -0.021656
0.041227     0.38081   -0.022864
0.029273     0.42294   -0.024071
0.014045       0.464   -0.025279
-0.0043632     0.50374   -0.026486
-0.025837      0.5419   -0.027694
-0.050243     0.57826   -0.028901
-0.077432     0.61259   -0.030109
-0.10723     0.64468   -0.031316
-0.13947     0.67433   -0.032524
-0.17393     0.70135   -0.033732
-0.21041     0.72558   -0.034939
-0.24868     0.74687   -0.036147
-0.2885     0.76508   -0.037354
-0.32964     0.78011   -0.038562
-0.37182     0.79186   -0.039769
-0.4148     0.80025   -0.040977
-0.45831     0.80525   -0.042185
-0.50208     0.80681   -0.043392
-0.54583     0.80492     -0.0446
-0.5893      0.7996   -0.045807
-0.63221     0.79089   -0.047015
-0.67431     0.77882   -0.048222
-0.71533     0.76349    -0.04943
-0.75502     0.74498   -0.050637
-0.79313     0.72341   -0.051844
-0.82943     0.69891   -0.053048
-0.86368     0.67162   -0.054249
-0.89567     0.64169   -0.055454
-0.92518     0.60922   -0.056712
-0.95205     0.57435   -0.058182
-0.97628     0.53762    -0.06017
-0.0025641    0.038328  -0.0010413
-0.0072643     0.07494  -0.0023966
-0.014702     0.11324  -0.0037986
-0.025081     0.15107  -0.0050442
-0.038409     0.18795  -0.0062468
-0.054603     0.22365  -0.0074493
-0.073556     0.25797  -0.0086552
-0.095148     0.29068  -0.0098625
-0.11924      0.3216    -0.01107
-0.1457     0.35053   -0.012278
-0.17434     0.37729   -0.013485
-0.205     0.40171   -0.014693
-0.23748     0.42365     -0.0159
-0.27158     0.44298   -0.017108
-0.3071     0.45956   -0.018316
-0.34382     0.47329   -0.019523
-0.3815      0.4841   -0.020731
-0.41991     0.49192   -0.021938
-0.45881     0.49669   -0.023146
-0.49798     0.49839   -0.024353
-0.53715     0.49701   -0.025561
-0.57609     0.49256   -0.026769
-0.61457     0.48505   -0.027976
-0.65233     0.47455   -0.029184
-0.68916     0.46111   -0.030391
-0.72481     0.44482   -0.031599
-0.75907     0.42577   -0.032806
-0.79173      0.4041   -0.034014
-0.82259     0.37992   -0.035221
-0.85144     0.35339   -0.036429
-0.87813     0.32468   -0.037637
-0.90248     0.29396   -0.038845
-0.92434     0.26142   -0.040053
-0.94357     0.22727   -0.041259
-0.96005     0.19171   -0.042459
-0.97366     0.15494    -0.04364
-0.98427     0.11716   -0.044789
-0.99175    0.078533    -0.04598
-0.99638    0.039302   -0.047675
-0.021175     0.03521   0.0082666
-0.045052    0.071193   0.0093211
-0.071838      0.1059   0.0080669
-0.10114     0.13848    0.006781
-0.1329     0.16865   0.0055533
-0.16694     0.19621   0.0043442
-0.20303     0.22101   0.0031375
-0.24097     0.24289   0.0019305
-0.2805     0.26172  0.00072316
-0.3214     0.27739 -0.00048436
-0.3634     0.28979  -0.0016919
-0.40624     0.29886  -0.0028995
-0.44966     0.30453  -0.0041071
-0.4934     0.30677  -0.0053146
-0.53718     0.30557  -0.0065222
-0.58072     0.30093  -0.0077298
-0.62377     0.29288  -0.0089373
-0.66605     0.28147   -0.010145
-0.7073     0.26678   -0.011352
-0.74728     0.24889    -0.01256
-0.78572     0.22791   -0.013768
-0.82239     0.20398   -0.014975
-0.85707     0.17724   -0.016183
-0.88955     0.14786    -0.01739
-0.91961     0.11601   -0.018598
-0.94707    0.081906   -0.019805
-0.97178    0.045745   -0.021013
-0.99356   0.0077538   -0.022221
-1.0123   -0.031831   -0.023428
-1.0278   -0.072766   -0.024636
-1.0401     -0.1148   -0.025843
-1.0491    -0.15766   -0.027051
-1.0547     -0.2011   -0.028258
-1.0568    -0.24484   -0.029462
-1.0555    -0.28861   -0.030661
-1.0507    -0.33213   -0.031851
-1.0424    -0.37515   -0.033061
-1.0307    -0.41745   -0.034422
-1.0158    -0.45915   -0.036371
-0.03754    0.015205   -0.010693
-0.078094    0.029563   -0.014215
-0.12036    0.041486   -0.015616
-0.16337    0.050005   -0.016833
-0.20687    0.055129   -0.018037
-0.25063    0.056808   -0.019243
-0.29439    0.055038   -0.020449
-0.33787    0.049833   -0.021656
-0.38081    0.041227   -0.022864
-0.42294    0.029273   -0.024071
-0.464    0.014045   -0.025279
-0.50374  -0.0043632   -0.026486
-0.5419   -0.025837   -0.027694
-0.57826   -0.050243   -0.028901
-0.61259   -0.077432   -0.030109
-0.64468    -0.10723   -0.031316
-0.67433    -0.13947   -0.032524
-0.70135    -0.17393   -0.033732
-0.72558    -0.21041   -0.034939
-0.74687    -0.24868   -0.036147
-0.76508     -0.2885   -0.037354
-0.78011    -0.32964   -0.038562
-0.79186    -0.37182   -0.039769
-0.80025     -0.4148   -0.040977
-0.80525    -0.45831   -0.042185
-0.80681    -0.50208   -0.043392
-0.80492    -0.54583     -0.0446
-0.7996     -0.5893   -0.045807
-0.79089    -0.63221   -0.047015
-0.77882    -0.67431   -0.048222
-0.76349    -0.71533    -0.04943
-0.74498    -0.75502   -0.050637
-0.72341    -0.79313   -0.051844
-0.69891    -0.82943   -0.053048
-0.67162    -0.86368   -0.054249
-0.64169    -0.89567   -0.055454
-0.60922    -0.92518   -0.056712
-0.57435    -0.95205   -0.058182
-0.53762    -0.97628    -0.06017
-0.038328  -0.0025641  -0.0010413
-0.07494  -0.0072643  -0.0023966
-0.11324   -0.014702  -0.0037986
-0.15107   -0.025081  -0.0050442
-0.18795   -0.038409  -0.0062468
-0.22365   -0.054603  -0.0074493
-0.25797   -0.073556  -0.0086552
-0.29068   -0.095148  -0.0098625
-0.3216    -0.11924    -0.01107
-0.35053     -0.1457   -0.012278
-0.37729    -0.17434   -0.013485
-0.40171      -0.205   -0.014693
-0.42365    -0.23748     -0.0159
-0.44298    -0.27158   -0.017108
-0.45956     -0.3071   -0.018316
-0.47329    -0.34382   -0.019523
-0.4841     -0.3815   -0.020731
-0.49192    -0.41991   -0.021938
-0.49669    -0.45881   -0.023146
-0.49839    -0.49798   -0.024353
-0.49701    -0.53715   -0.025561
-0.49256    -0.57609   -0.026769
-0.48505    -0.61457   -0.027976
-0.47455    -0.65233   -0.029184
-0.46111    -0.68916   -0.030391
-0.44482    -0.72481   -0.031599
-0.42577    -0.75907   -0.032806
-0.4041    -0.79173   -0.034014
-0.37992    -0.82259   -0.035221
-0.35339    -0.85144   -0.036429
-0.32468    -0.87813   -0.037637
-0.29396    -0.90248   -0.038845
-0.26142    -0.92434   -0.040053
-0.22727    -0.94357   -0.041259
-0.19171    -0.96005   -0.042459
-0.15494    -0.97366    -0.04364
-0.11716    -0.98427   -0.044789
-0.078533    -0.99175    -0.04598
-0.039302    -0.99638   -0.047675
-0.03521   -0.021175   0.0082666
-0.071193   -0.045052   0.0093211
-0.1059   -0.071838   0.0080669
-0.13848    -0.10114    0.006781
-0.16865     -0.1329   0.0055533
-0.19621    -0.16694   0.0043442
-0.22101    -0.20303   0.0031375
-0.24289    -0.24097   0.0019305
-0.26172     -0.2805  0.00072316
-0.27739     -0.3214 -0.00048436
-0.28979     -0.3634  -0.0016919
-0.29886    -0.40624  -0.0028995
-0.30453    -0.44966  -0.0041071
-0.30677     -0.4934  -0.0053146
-0.30557    -0.53718  -0.0065222
-0.30093    -0.58072  -0.0077298
-0.29288    -0.62377  -0.0089373
-0.28147    -0.66605   -0.010145
-0.26678     -0.7073   -0.011352
-0.24889    -0.74728    -0.01256
-0.22791    -0.78572   -0.013768
-0.20398    -0.82239   -0.014975
-0.17724    -0.85707   -0.016183
-0.14786    -0.88955    -0.01739
-0.11601    -0.91961   -0.018598
-0.081906    -0.94707   -0.019805
-0.045745    -0.97178   -0.021013
-0.0077538    -0.99356   -0.022221
0.031831     -1.0123   -0.023428
0.072766     -1.0278   -0.024636
0.1148     -1.0401   -0.025843
0.15766     -1.0491   -0.027051
0.2011     -1.0547   -0.028258
0.24484     -1.0568   -0.029462
0.28861     -1.0555   -0.030661
0.33213     -1.0507   -0.031851
0.37515     -1.0424   -0.033061
0.41745     -1.0307   -0.034422
0.45915     -1.0158   -0.036371
-0.015205    -0.03754   -0.010693
-0.029563   -0.078094   -0.014215
-0.041486    -0.12036   -0.015616
-0.050005    -0.16337   -0.016833
-0.055129    -0.20687   -0.018037
-0.056808    -0.25063   -0.019243
-0.055038    -0.29439   -0.020449
-0.049833    -0.33787   -0.021656
-0.041227    -0.38081   -0.022864
-0.029273    -0.42294   -0.024071
-0.014045      -0.464   -0.025279
0.0043632    -0.50374   -0.026486
0.025837     -0.5419   -0.027694
0.050243    -0.57826   -0.028901
0.077432    -0.61259   -0.030109
0.10723    -0.64468   -0.031316
0.13947    -0.67433   -0.032524
0.17393    -0.70135   -0.033732
0.21041    -0.72558   -0.034939
0.24868    -0.74687   -0.036147
0.2885    -0.76508   -0.037354
0.32964    -0.78011   -0.038562
0.37182    -0.79186   -0.039769
0.4148    -0.80025   -0.040977
0.45831    -0.80525   -0.042185
0.50208    -0.80681   -0.043392
0.54583    -0.80492     -0.0446
0.5893     -0.7996   -0.045807
0.63221    -0.79089   -0.047015
0.67431    -0.77882   -0.048222
0.71533    -0.76349    -0.04943
0.75502    -0.74498   -0.050637
0.79313    -0.72341   -0.051844
0.82943    -0.69891   -0.053048
0.86368    -0.67162   -0.054249
0.89567    -0.64169   -0.055454
0.92518    -0.60922   -0.056712
0.95205    -0.57435   -0.058182
0.97628    -0.53762    -0.06017
0.0025641   -0.038328  -0.0010413
0.0072643    -0.07494  -0.0023966
0.014702    -0.11324  -0.0037986
0.025081    -0.15107  -0.0050442
0.038409    -0.18795  -0.0062468
0.054603    -0.22365  -0.0074493
0.073556    -0.25797  -0.0086552
0.095148    -0.29068  -0.0098625
0.11924     -0.3216    -0.01107
0.1457    -0.35053   -0.012278
0.17434    -0.37729   -0.013485
0.205    -0.40171   -0.014693
0.23748    -0.42365     -0.0159
0.27158    -0.44298   -0.017108
0.3071    -0.45956   -0.018316
0.34382    -0.47329   -0.019523
0.3815     -0.4841   -0.020731
0.41991    -0.49192   -0.021938
0.45881    -0.49669   -0.023146
0.49798    -0.49839   -0.024353
0.53715    -0.49701   -0.025561
0.57609    -0.49256   -0.026769
0.61457    -0.48505   -0.027976
0.65233    -0.47455   -0.029184
0.68916    -0.46111   -0.030391
0.72481    -0.44482   -0.031599
0.75907    -0.42577   -0.032806
0.79173     -0.4041   -0.034014
0.82259    -0.37992   -0.035221
0.85144    -0.35339   -0.036429
0.87813    -0.32468   -0.037637
0.90248    -0.29396   -0.038845
0.92434    -0.26142   -0.040053
0.94357    -0.22727   -0.041259
0.96005    -0.19171   -0.042459
0.97366    -0.15494    -0.04364
0.98427    -0.11716   -0.044789
0.99175   -0.078533    -0.04598
0.99638   -0.039302   -0.047675
0.021175    -0.03521   0.0082666
0.045052   -0.071193   0.0093211
0.071838     -0.1059   0.0080669
0.10114    -0.13848    0.006781
0.1329    -0.16865   0.0055533
0.16694    -0.19621   0.0043442
0.20303    -0.22101   0.0031375
0.24097    -0.24289   0.0019305