# vtk DataFile Version 3.0
VTK Output
ASCII
DATASET UNSTRUCTURED_GRID

POINTS 1025 float
-0.5        -0.5           0
0.5        -0.5           0
0.5         0.5           0
-0.5         0.5           0
-0.5         -0.5           10
0.5         -0.5           10
0.5          0.5           10
-0.5          0.5           10
-0.25        -0.5           0
-1.3751e-12        -0.5           0
0.25        -0.5           0
0.5       -0.25           0
0.5 -1.3751e-12           0
0.5        0.25           0
0.25         0.5           0
1.3751e-12         0.5           0
-0.25         0.5           0
-0.5        0.25           0
-0.5  1.3751e-12           0
-0.5       -0.25           0
-0.25         -0.5           10
-1.37512e-12         -0.5           10
0.25         -0.5           10
0.5        -0.25           10
0.5 -1.37512e-12           10
0.5         0.25           10
0.25          0.5           10
1.37512e-12          0.5           10
-0.25          0.5           10
-0.5         0.25           10
-0.5  1.37512e-12           10
-0.5        -0.25           10
-0.5        -0.5        0.25
-0.5        -0.5         0.5
-0.5        -0.5        0.75
-0.5        -0.5           1
-0.5        -0.5        1.25
-0.5        -0.5         1.5
-0.5        -0.5        1.75
-0.5        -0.5           2
-0.5        -0.5        2.25
-0.5        -0.5         2.5
-0.5        -0.5        2.75
-0.5        -0.5           3
-0.5        -0.5        3.25
-0.5        -0.5         3.5
-0.5        -0.5        3.75
-0.5        -0.5           4
-0.5        -0.5        4.25
-0.5        -0.5         4.5
-0.5        -0.5        4.75
-0.5        -0.5           5
-0.5        -0.5        5.25
-0.5        -0.5         5.5
-0.5        -0.5        5.75
-0.5        -0.5           6
-0.5        -0.5        6.25
-0.5        -0.5         6.5
-0.5        -0.5        6.75
-0.5        -0.5           7
-0.5        -0.5        7.25
-0.5        -0.5         7.5
-0.5        -0.5        7.75
-0.5        -0.5           8
-0.5        -0.5        8.25
-0.5        -0.5         8.5
-0.5        -0.5        8.75
-0.5        -0.5           9
-0.5        -0.5        9.25
-0.5        -0.5         9.5
-0.5        -0.5        9.75
0.5        -0.5        0.25
0.5        -0.5         0.5
0.5        -0.5        0.75
0.5        -0.5           1
0.5        -0.5        1.25
0.5        -0.5         1.5
0.5        -0.5        1.75
0.5        -0.5           2
0.5        -0.5        2.25
0.5        -0.5         2.5
0.5        -0.5        2.75
0.5        -0.5           3
0.5        -0.5        3.25
0.5        -0.5         3.5
0.5        -0.5        3.75
0.5        -0.5           4
0.5        -0.5        4.25
0.5        -0.5         4.5
0.5        -0.5        4.75
0.5        -0.5           5
0.5        -0.5        5.25
0.5        -0.5         5.5
0.5        -0.5        5.75
0.5        -0.5           6
0.5        -0.5        6.25
0.5        -0.5         6.5
0.5        -0.5        6.75
0.5        -0.5           7
0.5        -0.5        7.25
0.5        -0.5         7.5
0.5        -0.5        7.75
0.5        -0.5           8
0.5        -0.5        8.25
0.5        -0.5         8.5
0.5        -0.5        8.75
0.5        -0.5           9
0.5        -0.5        9.25
0.5        -0.5         9.5
0.5        -0.5        9.75
0.5         0.5        0.25
0.5         0.5         0.5
0.5         0.5        0.75
0.5         0.5           1
0.5         0.5        1.25
0.5         0.5         1.5
0.5         0.5        1.75
0.5         0.5           2
0.5         0.5        2.25
0.5         0.5         2.5
0.5         0.5        2.75
0.5         0.5           3
0.5         0.5        3.25
0.5         0.5         3.5
0.5         0.5        3.75
0.5         0.5           4
0.5         0.5        4.25
0.5         0.5         4.5
0.5         0.5        4.75
0.5         0.5           5
0.5         0.5        5.25
0.5         0.5         5.5
0.5         0.5        5.75
0.5         0.5           6
0.5         0.5        6.25
0.5         0.5         6.5
0.5         0.5        6.75
0.5         0.5           7
0.5         0.5        7.25
0.5         0.5         7.5
0.5         0.5        7.75
0.5         0.5           8
0.5         0.5        8.25
0.5         0.5         8.5
0.5         0.5        8.75
0.5         0.5           9
0.5         0.5        9.25
0.5         0.5         9.5
0.5         0.5        9.75
-0.5         0.5        0.25
-0.5         0.5         0.5
-0.5         0.5        0.75
-0.5         0.5           1
-0.5         0.5        1.25
-0.5         0.5         1.5
-0.5         0.5        1.75
-0.5         0.5           2
-0.5         0.5        2.25
-0.5         0.5         2.5
-0.5         0.5        2.75
-0.5         0.5           3
-0.5         0.5        3.25
-0.5         0.5         3.5
-0.5         0.5        3.75
-0.5         0.5           4
-0.5         0.5        4.25
-0.5         0.5         4.5
-0.5         0.5        4.75
-0.5         0.5           5
-0.5         0.5        5.25
-0.5         0.5         5.5
-0.5         0.5        5.75
-0.5         0.5           6
-0.5         0.5        6.25
-0.5         0.5         6.5
-0.5         0.5        6.75
-0.5         0.5           7
-0.5         0.5        7.25
-0.5         0.5         7.5
-0.5         0.5        7.75
-0.5         0.5           8
-0.5         0.5        8.25
-0.5         0.5         8.5
-0.5         0.5        8.75
-0.5         0.5           9
-0.5         0.5        9.25
-0.5         0.5         9.5
-0.5         0.5        9.75
-0.25       -0.25           0
-0.25  6.8756e-13           0
-0.25        0.25           0
-6.8756e-13       -0.25           0
-3.7821e-24           0           0
6.8756e-13        0.25           0
0.25       -0.25           0
0.25 -6.8756e-13           0
0.25        0.25           0
-0.25        -0.5        0.25
-0.25        -0.5         0.5
-0.25        -0.5        0.75
-0.25        -0.5           1
-0.25        -0.5        1.25
-0.25        -0.5         1.5
-0.25        -0.5        1.75
-0.25        -0.5           2
-0.25        -0.5        2.25
-0.25        -0.5         2.5
-0.25        -0.5        2.75
-0.25        -0.5           3
-0.25        -0.5        3.25
-0.25        -0.5         3.5
-0.25        -0.5        3.75
-0.25        -0.5           4
-0.25        -0.5        4.25
-0.25        -0.5         4.5
-0.25        -0.5        4.75
-0.25        -0.5           5
-0.25        -0.5        5.25
-0.25        -0.5         5.5
-0.25        -0.5        5.75
-0.25        -0.5           6
-0.25        -0.5        6.25
-0.25        -0.5         6.5
-0.25        -0.5        6.75
-0.25        -0.5           7
-0.25        -0.5        7.25
-0.25        -0.5         7.5
-0.25        -0.5        7.75
-0.25        -0.5           8
-0.25        -0.5        8.25
-0.25        -0.5         8.5
-0.25        -0.5        8.75
-0.25        -0.5           9
-0.25        -0.5        9.25
-0.25        -0.5         9.5
-0.25        -0.5        9.75
-1.3751e-12        -0.5        0.25
-1.3751e-12        -0.5         0.5
-1.3751e-12        -0.5        0.75
-1.3751e-12        -0.5           1
-1.3751e-12        -0.5        1.25
-1.3751e-12        -0.5         1.5
-1.3751e-12        -0.5        1.75
-1.3751e-12        -0.5           2
-1.3751e-12        -0.5        2.25
-1.3751e-12        -0.5         2.5
-1.3751e-12        -0.5        2.75
-1.3751e-12        -0.5           3
-1.3751e-12        -0.5        3.25
-1.3751e-12        -0.5         3.5
-1.3751e-12        -0.5        3.75
-1.3751e-12        -0.5           4
-1.3751e-12        -0.5        4.25
-1.3751e-12        -0.5         4.5
-1.3751e-12        -0.5        4.75
-1.3751e-12        -0.5           5
-1.3751e-12        -0.5        5.25
-1.3751e-12        -0.5         5.5
-1.3751e-12        -0.5        5.75
-1.3751e-12        -0.5           6
-1.3751e-12        -0.5        6.25
-1.3751e-12        -0.5         6.5
-1.3751e-12        -0.5        6.75
-1.3751e-12        -0.5           7
-1.3751e-12        -0.5        7.25
-1.3751e-12        -0.5         7.5
-1.3751e-12        -0.5        7.75
-1.3751e-12        -0.5           8
-1.3751e-12        -0.5        8.25
-1.3751e-12        -0.5         8.5
-1.3751e-12        -0.5        8.75
-1.3751e-12        -0.5           9
-1.3751e-12        -0.5        9.25
-1.3751e-12        -0.5         9.5
-1.3751e-12        -0.5        9.75
0.25        -0.5        0.25
0.25        -0.5         0.5
0.25        -0.5        0.75
0.25        -0.5           1
0.25        -0.5        1.25
0.25        -0.5         1.5
0.25        -0.5        1.75
0.25        -0.5           2
0.25        -0.5        2.25
0.25        -0.5         2.5
0.25        -0.5        2.75
0.25        -0.5           3
0.25        -0.5        3.25
0.25        -0.5         3.5
0.25        -0.5        3.75
0.25        -0.5           4
0.25        -0.5        4.25
0.25        -0.5         4.5
0.25        -0.5        4.75
0.25        -0.5           5
0.25        -0.5        5.25
0.25        -0.5         5.5
0.25        -0.5        5.75
0.25        -0.5           6
0.25        -0.5        6.25
0.25        -0.5         6.5
0.25        -0.5        6.75
0.25        -0.5           7
0.25        -0.5        7.25
0.25        -0.5         7.5
0.25        -0.5        7.75
0.25        -0.5           8
0.25        -0.5        8.25
0.25        -0.5         8.5
0.25        -0.5        8.75
0.25        -0.5           9
0.25        -0.5        9.25
0.25        -0.5         9.5
0.25        -0.5        9.75
0.5       -0.25        0.25
0.5       -0.25         0.5
0.5       -0.25        0.75
0.5       -0.25           1
0.5       -0.25        1.25
0.5       -0.25         1.5
0.5       -0.25        1.75
0.5       -0.25           2
0.5       -0.25        2.25
0.5       -0.25         2.5
0.5       -0.25        2.75
0.5       -0.25           3
0.5       -0.25        3.25
0.5       -0.25         3.5
0.5       -0.25        3.75
0.5       -0.25           4
0.5       -0.25        4.25
[...]
POINT_DATA 1025
VECTORS displacement double
0  0  0
0  0  0
0  0  0
0  0  0
0.2294      1.1533    -0.57865
-1.1533      0.2294    -0.57865
-0.2294     -1.1533    -0.57865
1.1533     -0.2294    -0.57865
0  0  0
0  0  0
0  0  0
0  0  0
0  0  0
0  0  0
0  0  0
0  0  0
0  0  0
0  0  0
0  0  0
0  0  0
-0.11627     0.92231    -0.59035
-0.46194     0.69134    -0.53768
-0.80761     0.46037    -0.50151
-0.92231    -0.11627    -0.59035
-0.69134    -0.46194    -0.53768
-0.46037    -0.80761    -0.50151
0.11627    -0.92231    -0.59035
0.46194    -0.69134    -0.53768
0.80761    -0.46037    -0.50151
0.92231     0.11627    -0.59035
0.69134     0.46194    -0.53768
0.46037     0.80761    -0.50151
0.13295   -0.074596  -0.0034978
0.29653    -0.14472   -0.020189
0.47436    -0.17323    -0.03633
0.6532    -0.15605   -0.050743
0.82037    -0.09315    -0.06379
0.96456    0.011106   -0.076234
1.0762     0.14937   -0.088572
1.1478       0.312    -0.10095
1.1744     0.48771    -0.11338
1.1542     0.66429    -0.12583
1.0885     0.82947    -0.13829
0.98203     0.97176    -0.15074
0.84205      1.0813    -0.16319
0.67833      1.1505    -0.17563
0.50222      1.1745    -0.18808
0.32595      1.1516    -0.20053
0.16177      1.0835    -0.21298
0.021084     0.97492    -0.22543
-0.086349     0.83333    -0.23788
-0.15306     0.66859    -0.25033
-0.17443     0.49214    -0.26278
-0.14896     0.31624    -0.27523
-0.07842     0.15309    -0.28768
0.032284    0.014041    -0.30012
0.17547   -0.091264    -0.31257
0.34119    -0.15551    -0.32502
0.51794    -0.17423    -0.33747
0.69344    -0.14614    -0.34992
0.85551   -0.073166    -0.36237
0.9929    0.039614    -0.37483
1.0961     0.18437     -0.3873
1.1579     0.35101    -0.39978
1.174      0.5279    -0.41217
1.1436     0.70267     -0.4243
1.0683     0.86317    -0.43595
0.95242      0.9983    -0.44756
0.80059      1.0982    -0.46181
0.6196       1.155    -0.48549
0.4227      1.1662    -0.52464
0.074596     0.13295  -0.0034978
0.14472     0.29653   -0.020189
0.17323     0.47436    -0.03633
0.15605      0.6532   -0.050743
0.09315     0.82037    -0.06379
-0.011106     0.96456   -0.076234
-0.14937      1.0762   -0.088572
-0.312      1.1478    -0.10095
-0.48771      1.1744    -0.11338
-0.66429      1.1542    -0.12583
-0.82947      1.0885    -0.13829
-0.97176     0.98203    -0.15074
-1.0813     0.84205    -0.16319
-1.1505     0.67833    -0.17563
-1.1745     0.50222    -0.18808
-1.1516     0.32595    -0.20053
-1.0835     0.16177    -0.21298
-0.97492    0.021084    -0.22543
-0.83333   -0.086349    -0.23788
-0.66859    -0.15306    -0.25033
-0.49214    -0.17443    -0.26278
-0.31624    -0.14896    -0.27523
-0.15309    -0.07842    -0.28768
-0.014041    0.032284    -0.30012
0.091264     0.17547    -0.31257
0.15551     0.34119    -0.32502
0.17423     0.51794    -0.33747
0.14614     0.69344    -0.34992
0.073166     0.85551    -0.36237
-0.039614      0.9929    -0.37483
-0.18437      1.0961     -0.3873
-0.35101      1.1579    -0.39978
-0.5279       1.174    -0.41217
-0.70267      1.1436     -0.4243
-0.86317      1.0683    -0.43595
-0.9983     0.95242    -0.44756
-1.0982     0.80059    -0.46181
-1.155      0.6196    -0.48549
-1.1662      0.4227    -0.52464
-0.13295    0.074596  -0.0034978
-0.29653     0.14472   -0.020189
-0.47436     0.17323    -0.03633
-0.6532     0.15605   -0.050743
-0.82037     0.09315    -0.06379
-0.96456   -0.011106   -0.076234
-1.0762    -0.14937   -0.088572
-1.1478      -0.312    -0.10095
-1.1744    -0.48771    -0.11338
-1.1542    -0.66429    -0.12583
-1.0885    -0.82947    -0.13829
-0.98203    -0.97176    -0.15074
-0.84205     -1.0813    -0.16319
-0.67833     -1.1505    -0.17563
-0.50222     -1.1745    -0.18808
-0.32595     -1.1516    -0.20053
-0.16177     -1.0835    -0.21298
-0.021084    -0.97492    -0.22543
0.086349    -0.83333    -0.23788
0.15306    -0.66859    -0.25033
0.17443    -0.49214    -0.26278
0.14896    -0.31624    -0.27523
0.07842    -0.15309    -0.28768
-0.032284   -0.014041    -0.30012
-0.17547    0.091264    -0.31257
-0.34119     0.15551    -0.32502
-0.51794     0.17423    -0.33747
-0.69344     0.14614    -0.34992
-0.85551    0.073166    -0.36237
-0.9929   -0.039614    -0.37483
-1.0961    -0.18437     -0.3873
-1.1579    -0.35101    -0.39978
-1.174     -0.5279    -0.41217
-1.1436    -0.70267     -0.4243
-1.0683    -0.86317    -0.43595
-0.95242     -0.9983    -0.44756
-0.80059     -1.0982    -0.46181
-0.6196      -1.155    -0.48549
-0.4227     -1.1662    -0.52464
-0.074596    -0.13295  -0.0034978
-0.14472    -0.29653   -0.020189
-0.17323    -0.47436    -0.03633
-0.15605     -0.6532   -0.050743
-0.09315    -0.82037    -0.06379
0.011106    -0.96456   -0.076234
0.14937     -1.0762   -0.088572
0.312     -1.1478    -0.10095
0.48771     -1.1744    -0.11338
0.66429     -1.1542    -0.12583
0.82947     -1.0885    -0.13829
0.97176    -0.98203    -0.15074
1.0813    -0.84205    -0.16319
1.1505    -0.67833    -0.17563
1.1745    -0.50222    -0.18808
1.1516    -0.32595    -0.20053
1.0835    -0.16177    -0.21298
0.97492   -0.021084    -0.22543
0.83333    0.086349    -0.23788
0.66859     0.15306    -0.25033
0.49214     0.17443    -0.26278
0.31624     0.14896    -0.27523
0.15309     0.07842    -0.28768
0.014041   -0.032284    -0.30012
-0.091264    -0.17547    -0.31257
-0.15551    -0.34119    -0.32502
-0.17423    -0.51794    -0.33747
-0.14614    -0.69344    -0.34992
-0.073166    -0.85551    -0.36237
0.039614     -0.9929    -0.37483
0.18437     -1.0961     -0.3873
0.35101     -1.1579    -0.39978
0.5279      -1.174    -0.41217
0.70267     -1.1436     -0.4243
0.86317     -1.0683    -0.43595
0.9983    -0.95242    -0.44756
1.0982    -0.80059    -0.46181
1.155     -0.6196    -0.48549
1.1662     -0.4227    -0.52464
0  0  0
0  0  0
0  0  0
0  0  0
0  0  0
0  0  0
0  0  0
0  0  0
0  0  0
0.11966   -0.026088   -0.040838
0.25631   -0.034337   -0.062206
0.39701    -0.01228   -0.077803
0.52729    0.044753   -0.091146
0.63736     0.13322    -0.10361
0.71996     0.24713    -0.11592
0.76975     0.37861    -0.12829
0.78341     0.51854    -0.14071
0.76004     0.65722    -0.15316
0.70126     0.78499    -0.16561
0.61114     0.89297    -0.17806
0.49595     0.97366    -0.19051
0.36367      1.0215    -0.20296
0.22351      1.0331    -0.21541
0.08518      1.0076    -0.22786
-0.0417     0.94694    -0.24031
-0.14832     0.85523    -0.25276
-0.22729     0.73884    -0.26521
-0.27311     0.60587    -0.27765
-0.2826     0.46554     -0.2901
-0.25511     0.32761    -0.30255
-0.19254     0.20165      -0.315
-0.099235    0.096412    -0.32745
0.018318    0.019197     -0.3399
0.15196    -0.02463    -0.35235
0.29241   -0.032025     -0.3648
0.42991  -0.0024736    -0.37725
0.55492    0.061972    -0.38969
0.65876     0.15684    -0.40215
0.73421     0.27554     -0.4146
0.77603     0.40984    -0.42706
0.78135     0.55038    -0.43951
0.7499     0.68738     -0.4519
0.68395     0.81134    -0.46414
0.5879     0.91362    -0.47624
0.46742      0.9865     -0.4887
0.32873      1.0226    -0.50338
0.17941       1.016     -0.5242
0.033677     0.97094    -0.55083
0.11337    0.023983  -0.0076855
0.22335    0.072142   -0.022206
0.32746     0.14709   -0.037968
0.40957     0.24582   -0.051443
0.46243     0.36205   -0.063883
0.48261     0.48771   -0.076154
0.4691     0.61416   -0.088506
0.423     0.73269    -0.10093
0.34753     0.83508    -0.11338
0.24793     0.91423    -0.12584
0.13112     0.96461    -0.13829
0.0051945     0.98273    -0.15074
-0.12109     0.96732    -0.16319
-0.23896     0.91947    -0.17563
-0.34024     0.84248    -0.18808
-0.41789     0.74171    -0.20053
-0.46652     0.62416    -0.21298
-0.48275     0.49798    -0.22543
-0.46546     0.37194    -0.23788
-0.41585      0.2548    -0.25033
-0.33736     0.15468    -0.26278
-0.23544    0.078548    -0.27523
-0.11717    0.031679    -0.28768
0.0092332    0.017331    -0.30012
0.135    0.036502    -0.31257
0.25139     0.08786    -0.32502
0.35032     0.16784    -0.33747
0.42492     0.27088    -0.34992
0.47002     0.38984    -0.36237
0.48247     0.51645    -0.37482
0.46141     0.64193    -0.38728
0.40833     0.75755    -0.39977
0.32698     0.85529    -0.41226
0.22312      0.9284    -0.42467
0.10399     0.97177    -0.43666
-0.022556     0.98183    -0.44781
-0.14866     0.95585    -0.45835
-0.26743     0.89159    -0.47241
-0.37037     0.79322    -0.49787
0.096119    0.084142    0.019536
0.18408     0.18922    0.015767
0.24898     0.31509   0.0027849
0.28069     0.45337   -0.010824
0.27498     0.59447   -0.023799
0.23227     0.72861   -0.036349
0.15587     0.84666   -0.048767
0.051246      0.9406   -0.061181
-0.074295       1.004   -0.073615
-0.21204      1.0324   -0.086062
-0.35242      1.0238   -0.098512
-0.4857     0.97885    -0.11096
-0.6026     0.90065    -0.12341
-0.69502     0.79463    -0.13586
-0.75653     0.66815    -0.14831
-0.78287        0.53    -0.16076
-0.7722     0.38976    -0.17321
-0.72527     0.25717    -0.18566
-0.64534     0.14145    -0.19811
-0.53795     0.05063    -0.21055
-0.41057  -0.0089863      -0.223
-0.27203   -0.033257    -0.23545
-0.13197   -0.020497     -0.2479
-9.9113e-05    0.028409    -0.26035
0.11441     0.11006     -0.2728
0.20362      0.2188    -0.28525
0.26133     0.34706     -0.2977
0.28353     0.48594    -0.31015
0.26867      0.6258    -0.32259
0.21779     0.75693    -0.33504
0.13443     0.87022    -0.34751
0.024383     0.95782    -0.35998
-0.10464      1.0137    -0.37246
-0.24358      1.0339    -0.38484
-0.38272       1.017    -0.39688
-0.51248     0.96355    -0.40837
-0.62436     0.87504    -0.41994
-0.71138     0.75367    -0.43477
-0.77063     0.60438    -0.46305
0.026088     0.11966   -0.040838
0.034337     0.25631   -0.062206
0.01228     0.39701   -0.077803
-0.044753     0.52729   -0.091146
-0.13322     0.63736    -0.10361
-0.24713     0.71996    -0.11592
-0.37861     0.76975    -0.12829
-0.51854     0.78341    -0.14071
-0.65722     0.76004    -0.15316
-0.78499     0.70126    -0.16561
-0.89297     0.61114    -0.17806
-0.97366     0.49595    -0.19051
-1.0215     0.36367    -0.20296
-1.0331     0.22351    -0.21541
-1.0076     0.08518    -0.22786
-0.94694     -0.0417    -0.24031
-0.85523    -0.14832    -0.25276
-0.73884    -0.22729    -0.26521
-0.60587    -0.27311    -0.27765
-0.46554     -0.2826     -0.2901
-0.32761    -0.25511    -0.30255
-0.20165    -0.19254      -0.315
-0.096412   -0.099235    -0.32745
-0.019197    0.018318     -0.3399
0.02463     0.15196    -0.35235
0.032025     0.29241     -0.3648
0.0024736     0.42991    -0.37725
-0.061972     0.55492    -0.38969
-0.15684     0.65876    -0.40215
-0.27554     0.73421     -0.4146
-0.40984     0.77603    -0.42706
-0.55038     0.78135    -0.43951
-0.68738      0.7499     -0.4519
-0.81134     0.68395    -0.46414
-0.91362      0.5879    -0.47624
-0.9865     0.46742     -0.4887
-1.0226     0.32873    -0.50338
-1.016     0.17941     -0.5242
-0.97094    0.033677    -0.55083
-0.023983     0.11337  -0.0076855
-0.072142     0.22335   -0.022206
-0.14709     0.32746   -0.037968
-0.24582     0.40957   -0.051443
-0.36205     0.46243   -0.063883
-0.48771     0.48261   -0.076154
-0.61416      0.4691   -0.088506
-0.73269       0.423    -0.10093
-0.83508     0.34753    -0.11338
-0.91423     0.24793    -0.12584
-0.96461     0.13112    -0.13829
-0.98273   0.0051945    -0.15074
-0.96732    -0.12109    -0.16319
-0.91947    -0.23896    -0.17563
-0.84248    -0.34024    -0.18808
-0.74171    -0.41789    -0.20053
-0.62416    -0.46652    -0.21298
-0.49798    -0.48275    -0.22543
-0.37194    -0.46546    -0.23788
-0.2548    -0.41585    -0.25033
-0.15468    -0.33736    -0.26278
-0.078548    -0.23544    -0.27523
-0.031679    -0.11717    -0.28768
-0.017331   0.0092332    -0.30012
-0.036502       0.135    -0.31257
-0.08786     0.25139    -0.32502
-0.16784     0.35032    -0.33747
-0.27088     0.42492    -0.34992
-0.38984     0.47002    -0.36237
-0.51645     0.48247    -0.37482
-0.64193     0.46141    -0.38728
-0.75755     0.40833    -0.39977
-0.85529     0.32698    -0.41226
-0.9284     0.22312    -0.42467
-0.97177     0.10399    -0.43666
-0.98183   -0.022556    -0.44781
-0.95585    -0.14866    -0.45835
-0.89159    -0.26743    -0.47241
-0.79322    -0.37037    -0.49787
-0.084142    0.096119    0.019536
-0.18922     0.18408    0.015767
-0.31509     0.24898   0.0027849
-0.45337     0.28069   -0.010824
-0.59447     0.27498   -0.023799
-0.72861     0.23227   -0.036349
-0.84666     0.15587   -0.048767
-0.9406    0.051246   -0.061181
-1.004   -0.074295   -0.073615
-1.0324    -0.21204   -0.086062
-1.0238    -0.35242   -0.098512
-0.97885     -0.4857    -0.11096
-0.90065     -0.6026    -0.12341
-0.79463    -0.69502    -0.13586
-0.66815    -0.75653    -0.14831
-0.53    -0.78287    -0.16076
-0.38976     -0.7722    -0.17321
-0.25717    -0.72527    -0.18566
-0.14145    -0.64534    -0.19811
-0.05063    -0.53795    -0.21055
0.0089863    -0.41057      -0.223
0.033257    -0.27203    -0.23545
0.020497    -0.13197     -0.2479
-0.028409 -9.9113e-05    -0.26035
-0.11006     0.11441     -0.2728
-0.2188     0.20362    -0.28525
-0.34706     0.26133     -0.2977
-0.48594     0.28353    -0.31015
-0.6258     0.26867    -0.32259
-0.75693     0.21779    -0.33504
-0.87022     0.13443    -0.34751
-0.95782    0.024383    -0.35998
-1.0137    -0.10464    -0.37246
-1.0339    -0.24358    -0.38484
-1.017    -0.38272    -0.39688
-0.96355    -0.51248    -0.40837
-0.87504    -0.62436    -0.41994
-0.75367    -0.71138    -0.43477
-0.60438    -0.77063    -0.46305
-0.11966    0.026088   -0.040838
-0.25631    0.034337   -0.062206
-0.39701     0.01228   -0.077803
-0.52729   -0.044753   -0.091146
-0.63736    -0.13322    -0.10361
-0.71996    -0.24713    -0.11592
-0.76975    -0.37861    -0.12829
-0.78341    -0.51854    -0.14071
-0.76004    -0.65722    -0.15316
-0.70126    -0.78499    -0.16561
-0.61114    -0.89297    -0.17806
-0.49595    -0.97366    -0.19051
-0.36367     -1.0215    -0.20296
-0.22351     -1.0331    -0.21541
-0.08518     -1.0076    -0.22786
0.0417    -0.94694    -0.24031
0.14832    -0.85523    -0.25276
0.22729    -0.73884    -0.26521
0.27311    -0.60587    -0.27765
0.2826    -0.46554     -0.2901
0.25511    -0.32761    -0.30255
0.19254    -0.20165      -0.315
0.099235   -0.096412    -0.32745
-0.018318   -0.019197     -0.3399
-0.15196     0.02463    -0.35235
-0.29241    0.032025     -0.3648
-0.42991   0.0024736    -0.37725
-0.55492   -0.061972    -0.38969
-0.65876    -0.15684    -0.40215
-0.73421    -0.27554     -0.4146
-0.77603    -0.40984    -0.42706
-0.78135    -0.55038    -0.43951
-0.7499    -0.68738     -0.4519
-0.68395    -0.81134    -0.46414
-0.5879    -0.91362    -0.47624
-0.46742     -0.9865     -0.4887
-0.32873     -1.0226    -0.50338
-0.17941      -1.016     -0.5242
-0.033677    -0.97094    -0.55083
-0.11337   -0.023983  -0.0076855
-0.22335   -0.072142   -0.022206
-0.32746    -0.14709   -0.037968
-0.40957    -0.24582   -0.051443
-0.46243    -0.36205   -0.063883
-0.48261    -0.48771   -0.076154
-0.4691    -0.61416   -0.088506
-0.423    -0.73269    -0.10093
-0.34753    -0.83508    -0.11338
-0.24793    -0.91423    -0.12584
-0.13112    -0.96461    -0.13829
-0.0051945    -0.98273    -0.15074
0.12109    -0.96732    -0.16319
0.23896    -0.91947    -0.17563
0.34024    -0.84248    -0.18808
0.41789    -0.74171    -0.20053
0.46652    -0.62416    -0.21298
0.48275    -0.49798    -0.22543
0.46546    -0.37194    -0.23788
0.41585     -0.2548    -0.25033
0.33736    -0.15468    -0.26278
0.23544   -0.078548    -0.27523
0.11717   -0.031679    -0.28768
-0.0092332   -0.017331    -0.30012
-0.135   -0.036502    -0.31257
-0.25139    -0.08786    -0.32502
-0.35032    -0.16784    -0.33747
-0.42492    -0.27088    -0.34992
-0.47002    -0.38984    -0.36237
-0.48247    -0.51645    -0.37482
-0.46141    -0.64193    -0.38728
-0.40833    -0.75755    -0.39977
-0.32698    -0.85529    -0.41226
-0.22312     -0.9284    -0.42467
-0.10399    -0.97177    -0.43666
0.022556    -0.98183    -0.44781
0.14866    -0.95585    -0.45835
0.26743    -0.89159    -0.47241
0.37037    -0.79322    -0.49787
-0.096119   -0.084142    0.019536
-0.18408    -0.18922    0.015767
-0.24898    -0.31509   0.0027849
-0.28069    -0.45337   -0.010824
-0.27498    -0.59447   -0.023799
-0.23227    -0.72861   -0.036349
-0.15587    -0.84666   -0.048767
-0.051246     -0.9406   -0.061181
0.074295      -1.004   -0.073615
0.21204     -1.0324   -0.086062
0.35242     -1.0238   -0.098512
0.4857    -0.97885    -0.11096
0.6026    -0.90065    -0.12341
0.69502    -0.79463    -0.13586
0.75653    -0.66815    -0.14831
0.78287       -0.53    -0.16076
0.7722    -0.38976    -0.17321
0.72527    -0.25717    -0.18566
0.64534    -0.14145    -0.19811
0.53795    -0.05063    -0.21055
0.41057   0.0089863      -0.223
0.27203    0.033257    -0.23545
0.13197    0.020497     -0.2479
9.9113e-05   -0.028409    -0.26035
-0.11441    -0.11006     -0.2728
-0.20362     -0.2188    -0.28525
-0.26133    -0.34706     -0.2977
-0.28353    -0.48594    -0.31015
-0.26867     -0.6258    -0.32259
-0.21779    -0.75693    -0.33504
-0.13443    -0.87022    -0.34751
-0.024383    -0.95782    -0.35998
0.10464     -1.0137    -0.37246
0.24358     -1.0339    -0.38484
0.38272      -1.017    -0.39688
0.51248    -0.96355    -0.40837
0.62436    -0.87504    -0.41994
0.71138    -0.75367    -0.43477
0.77063    -0.60438    -0.46305
-0.026088    -0.11966   -0.040838
-0.034337    -0.25631   -0.062206
-0.01228    -0.39701   -0.077803
0.044753    -0.52729   -0.091146
0.13322    -0.63736    -0.10361
0.24713    -0.71996    -0.11592
0.37861    -0.76975    -0.12829
0.51854    -0.78341    -0.14071
0.65722    -0.76004    -0.15316
0.78499    -0.70126    -0.16561
0.89297    -0.61114    -0.17806
0.97366    -0.49595    -0.19051
1.0215    -0.36367    -0.20296
1.0331    -0.22351    -0.21541
1.0076    -0.08518    -0.22786
0.94694      0.0417    -0.24031
0.85523     0.14832    -0.25276
0.73884     0.22729    -0.26521
0.60587     0.27311    -0.27765
0.46554      0.2826     -0.2901
0.32761     0.25511    -0.30255
0.20165     0.19254      -0.315
0.096412    0.099235    -0.32745
0.019197   -0.018318     -0.3399
-0.02463    -0.15196    -0.35235
-0.032025    -0.29241     -0.3648
-0.0024736    -0.42991    -0.37725
0.061972    -0.55492    -0.38969
0.15684    -0.65876    -0.40215
0.27554    -0.73421     -0.4146
0.40984    -0.77603    -0.42706
0.55038    -0.78135    -0.43951
0.68738     -0.7499     -0.4519
0.81134    -0.68395    -0.46414
0.91362     -0.5879    -0.47624
0.9865    -0.46742     -0.4887
1.0226    -0.32873    -0.50338
1.016    -0.17941     -0.5242
0.97094   -0.033677    -0.55083
0.023983    -0.11337  -0.0076855
0.072142    -0.22335   -0.022206
0.14709    -0.32746   -0.037968
0.24582    -0.40957   -0.051443
0.36205    -0.46243   -0.063883
0.48771    -0.48261   -0.076154
0.61416     -0.4691   -0.088506
0.73269      -0.423    -0.10093
0.83508    -0.34753    -0.11338
0.91423    -0.24793    -0.12584
0.96461    -0.13112    -0.13829
0.98273  -0.0051945    -0.15074
0.96732     0.12109    -0.16319
0.91947     0.23896    -0.17563
0.84248     0.34024    -0.18808
0.74171     0.41789    -0.20053
0.62416     0.46652    -0.21298
0.49798     0.48275    -0.22543
0.37194     0.46546    -0.23788
0.2548     0.41585    -0.25033
0.15468     0.33736    -0.26278
0.078548     0.23544    -0.27523
0.031679     0.11717    -0.28768
0.017331  -0.0092332    -0.30012
0.036502      -0.135    -0.31257
0.08786    -0.25139    -0.32502
0.16784    -0.35032    -0.33747
0.27088    -0.42492    -0.34992
0.38984    -0.47002    -0.36237
0.51645    -0.48247    -0.37482
0.64193    -0.46141    -0.38728
0.75755    -0.40833    -0.39977
0.85529    -0.32698    -0.41226
0.9284    -0.22312    -0.42467
0.97177    -0.10399    -0.43666
0.98183    0.022556    -0.44781
0.95585     0.14866    -0.45835
0.89159     0.26743    -0.47241
0.79322     0.37037    -0.49787
0.084142   -0.096119    0.019536
0.18922    -0.18408    0.015767
0.31509    -0.24898   0.0027849
0.45337    -0.28069   -0.010824
0.59447    -0.27498   -0.023799
0.72861    -0.23227   -0.036349
0.84666    -0.15587   -0.048767