# vtk DataFile Version 3.0
VTK Output
ASCII
DATASET UNSTRUCTURED_GRID

POINTS 1025 float
-0.5        -0.5           0
0.5        -0.5           0
0.5         0.5           0
-0.5         0.5           0
-0.5         -0.5           10
0.5         -0.5           10
0.5          0.5           10
-0.5          0.5           10
-0.25        -0.5           0
-1.3751e-12        -0.5           0
0.25        -0.5           0
0.5       -0.25           0
0.5 -1.3751e-12           0
0.5        0.25           0
0.25         0.5           0
1.3751e-12         0.5           0
-0.25         0.5           0
-0.5        0.25           0
-0.5  1.3751e-12           0
-0.5       -0.25           0
-0.25         -0.5           10
-1.37512e-12         -0.5           10
0.25         -0.5           10
0.5        -0.25           10
0.5 -1.37512e-12           10
0.5         0.25           10
0.25          0.5           10
1.37512e-12          0.5           10
-0.25          0.5           10
-0.5         0.25           10
-0.5  1.37512e-12           10
-0.5        -0.25           10
-0.5        -0.5        0.25
-0.5        -0.5         0.5
-0.5        -0.5        0.75
-0.5        -0.5           1
-0.5        -0.5        1.25
-0.5        -0.5         1.5
-0.5        -0.5        1.75
-0.5        -0.5           2
-0.5        -0.5        2.25
-0.5        -0.5         2.5
-0.5        -0.5        2.75
-0.5        -0.5           3
-0.5        -0.5        3.25
-0.5        -0.5         3.5
-0.5        -0.5        3.75
-0.5        -0.5           4
-0.5        -0.5        4.25
-0.5        -0.5         4.5
-0.5        -0.5        4.75
-0.5        -0.5           5
-0.5        -0.5        5.25
-0.5        -0.5         5.5
-0.5        -0.5        5.75
-0.5        -0.5           6
-0.5        -0.5        6.25
-0.5        -0.5         6.5
-0.5        -0.5        6.75
-0.5        -0.5           7
-0.5        -0.5        7.25
-0.5        -0.5         7.5
-0.5        -0.5        7.75
-0.5        -0.5           8
-0.5        -0.5        8.25
-0.5        -0.5         8.5
-0.5        -0.5        8.75
-0.5        -0.5           9
-0.5        -0.5        9.25
-0.5        -0.5         9.5
-0.5        -0.5        9.75
0.5        -0.5        0.25
0.5        -0.5         0.5
0.5        -0.5        0.75
0.5        -0.5           1
0.5        -0.5        1.25
0.5        -0.5         1.5
0.5        -0.5        1.75
0.5        -0.5           2
0.5        -0.5        2.25
0.5        -0.5         2.5
0.5        -0.5        2.75
0.5        -0.5           3
0.5        -0.5        3.25
0.5        -0.5         3.5
0.5        -0.5        3.75
0.5        -0.5           4
0.5        -0.5        4.25
0.5        -0.5         4.5
0.5        -0.5        4.75
0.5        -0.5           5
0.5        -0.5        5.25
0.5        -0.5         5.5
0.5        -0.5        5.75
0.5        -0.5           6
0.5        -0.5        6.25
0.5        -0.5         6.5
0.5        -0.5        6.75
0.5        -0.5           7
0.5        -0.5        7.25
0.5        -0.5         7.5
0.5        -0.5        7.75
0.5        -0.5           8
0.5        -0.5        8.25
0.5        -0.5         8.5
0.5        -0.5        8.75
0.5        -0.5           9
0.5        -0.5        9.25
0.5        -0.5         9.5
0.5        -0.5        9.75
0.5         0.5        0.25
0.5         0.5         0.5
0.5         0.5        0.75
0.5         0.5           1
0.5         0.5        1.25
0.5         0.5         1.5
0.5         0.5        1.75
0.5         0.5           2
0.5         0.5        2.25
0.5         0.5         2.5
0.5         0.5        2.75
0.5         0.5           3
0.5         0.5        3.25
0.5         0.5         3.5
0.5         0.5        3.75
0.5         0.5           4
0.5         0.5        4.25
0.5         0.5         4.5
0.5         0.5        4.75
0.5         0.5           5
0.5         0.5        5.25
0.5         0.5         5.5
0.5         0.5        5.75
0.5         0.5           6
0.5         0.5        6.25
0.5         0.5         6.5
0.5         0.5        6.75
0.5         0.5           7
0.5         0.5        7.25
0.5         0.5         7.5
0.5         0.5        7.75
0.5         0.5           8
0.5         0.5        8.25
0.5         0.5         8.5
0.5         0.5        8.75
0.5         0.5           9
0.5         0.5        9.25
0.5         0.5         9.5
0.5         0.5        9.75
-0.5         0.5        0.25
-0.5         0.5         0.5
-0.5         0.5        0.75
-0.5         0.5           1
-0.5         0.5        1.25
-0.5         0.5         1.5
-0.5         0.5        1.75
-0.5         0.5           2
-0.5         0.5        2.25
-0.5         0.5         2.5
-0.5         0.5        2.75
-0.5         0.5           3
-0.5         0.5        3.25
-0.5         0.5         3.5
-0.5         0.5        3.75
-0.5         0.5           4
-0.5         0.5        4.25
-0.5         0.5         4.5
-0.5         0.5        4.75
-0.5         0.5           5
-0.5         0.5        5.25
-0.5         0.5         5.5
-0.5         0.5        5.75
-0.5         0.5           6
-0.5         0.5        6.25
-0.5         0.5         6.5
-0.5         0.5        6.75
-0.5         0.5           7
-0.5         0.5        7.25
-0.5         0.5         7.5
-0.5         0.5        7.75
-0.5         0.5           8
-0.5         0.5        8.25
-0.5         0.5         8.5
-0.5         0.5        8.75
-0.5         0.5           9
-0.5         0.5        9.25
-0.5         0.5         9.5
-0.5         0.5        9.75
-0.25       -0.25           0
-0.25  6.8756e-13           0
-0.25        0.25           0
-6.8756e-13       -0.25           0
-3.7821e-24           0           0
6.8756e-13        0.25           0
0.25       -0.25           0
0.25 -6.8756e-13           0
0.25        0.25           0
-0.25        -0.5        0.25
-0.25        -0.5         0.5
-0.25        -0.5        0.75
-0.25        -0.5           1
-0.25        -0.5        1.25
-0.25        -0.5         1.5
-0.25        -0.5        1.75
-0.25        -0.5           2
-0.25        -0.5        2.25
-0.25        -0.5         2.5
-0.25        -0.5        2.75
-0.25        -0.5           3
-0.25        -0.5        3.25
-0.25        -0.5         3.5
-0.25        -0.5        3.75
-0.25        -0.5           4
-0.25        -0.5        4.25
-0.25        -0.5         4.5
-0.25        -0.5        4.75
-0.25        -0.5           5
-0.25        -0.5        5.25
-0.25        -0.5         5.5
-0.25        -0.5        5.75
-0.25        -0.5           6
-0.25        -0.5        6.25
-0.25        -0.5         6.5
-0.25        -0.5        6.75
-0.25        -0.5           7
-0.25        -0.5        7.25
-0.25        -0.5         7.5
-0.25        -0.5        7.75
-0.25        -0.5           8
-0.25        -0.5        8.25
-0.25        -0.5         8.5
-0.25        -0.5        8.75
-0.25        -0.5           9
-0.25        -0.5        9.25
-0.25        -0.5         9.5
-0.25        -0.5        9.75
-1.3751e-12        -0.5        0.25
-1.3751e-12        -0.5         0.5
-1.3751e-12        -0.5        0.75
-1.3751e-12        -0.5           1
-1.3751e-12        -0.5        1.25
-1.3751e-12        -0.5         1.5
-1.3751e-12        -0.5        1.75
-1.3751e-12        -0.5           2
-1.3751e-12        -0.5        2.25
-1.3751e-12        -0.5         2.5
-1.3751e-12        -0.5        2.75
-1.3751e-12        -0.5           3
-1.3751e-12        -0.5        3.25
-1.3751e-12        -0.5         3.5
-1.3751e-12        -0.5        3.75
-1.3751e-12        -0.5           4
-1.3751e-12        -0.5        4.25
-1.3751e-12        -0.5         4.5
-1.3751e-12        -0.5        4.75
-1.3751e-12        -0.5           5
-1.3751e-12        -0.5        5.25
-1.3751e-12        -0.5         5.5
-1.3751e-12        -0.5        5.75
-1.3751e-12        -0.5           6
-1.3751e-12        -0.5        6.25
-1.3751e-12        -0.5         6.5
-1.3751e-12        -0.5        6.75
-1.3751e-12        -0.5           7
-1.3751e-12        -0.5        7.25
-1.3751e-12        -0.5         7.5
-1.3751e-12        -0.5        7.75
-1.3751e-12        -0.5           8
-1.3751e-12        -0.5        8.25
-1.3751e-12        -0.5         8.5
-1.3751e-12        -0.5        8.75
-1.3751e-12        -0.5           9
-1.3751e-12        -0.5        9.25
-1.3751e-12        -0.5         9.5
-1.3751e-12        -0.5        9.75
0.25        -0.5        0.25
0.25        -0.5         0.5
0.25        -0.5        0.75
0.25        -0.5           1
0.25        -0.5        1.25
0.25        -0.5         1.5
0.25        -0.5        1.75
0.25        -0.5           2
0.25        -0.5        2.25
0.25        -0.5         2.5
0.25        -0.5        2.75
0.25        -0.5           3
0.25        -0.5        3.25
0.25        -0.5         3.5
0.25        -0.5        3.75
0.25        -0.5           4
0.25        -0.5        4.25
0.25        -0.5         4.5
0.25        -0.5        4.75
0.25        -0.5           5
0.25        -0.5        5.25
0.25        -0.5         5.5
0.25        -0.5        5.75
0.25        -0.5           6
0.25        -0.5        6.25
0.25        -0.5         6.5
0.25        -0.5        6.75
0.25        -0.5           7
0.25        -0.5        7.25
0.25        -0.5         7.5
0.25        -0.5        7.75
0.25        -0.5           8
0.25        -0.5        8.25
0.25        -0.5         8.5
0.25        -0.5        8.75
0.25        -0.5           9
0.25        -0.5        9.25
0.25        -0.5         9.5
0.25        -0.5        9.75
0.5       -0.25        0.25
0.5       -0.25         0.5
0.5       -0.25        0.75
0.5       -0.25           1
0.5       -0.25        1.25
0.5       -0.25         1.5
0.5       -0.25        1.75
0.5       -0.25           2
0.5       -0.25        2.25
0.5       -0.25         2.5
0.5       -0.25        2.75
0.5       -0.25           3
0.5       -0.25        3.25
0.5       -0.25         3.5
0.5       -0.25        3.75
0.5       -0.25           4
0.5       -0.25        4.25
[...]
POINT_DATA 1025
VECTORS displacement double
0  0  0
0  0  0
0  0  0
0  0  0
-0.19352     0.36205    -0.17419
-0.36205    -0.19352    -0.17419
0.19352    -0.36205    -0.17419
0.36205     0.19352    -0.17419
0  0  0
0  0  0
0  0  0
0  0  0
0  0  0
0  0  0
0  0  0
0  0  0
0  0  0
0  0  0
0  0  0
0  0  0
-0.23565     0.22316    -0.18844
-0.27779    0.084265    -0.16346
-0.31992   -0.054627     -0.1437
-0.22316    -0.23565    -0.18844
-0.084265    -0.27779    -0.16346
0.054627    -0.31992     -0.1437
0.23565    -0.22316    -0.18844
0.27779   -0.084265    -0.16346
0.31992    0.054627     -0.1437
0.22316     0.23565    -0.18844
0.084265     0.27779    -0.16346
-0.054627     0.31992     -0.1437
0.069838    -0.05147  -0.0015018
0.15497    -0.10721  -0.0072115
0.24575    -0.14996   -0.011857
0.34092    -0.17951   -0.016048
0.43911    -0.19527   -0.020026
0.53848     -0.1969   -0.023916
0.63706    -0.18438    -0.02779
0.73285    -0.15799   -0.031667
0.82393    -0.11825   -0.035549
0.90844    -0.06599   -0.039433
0.98467  -0.0022552   -0.043317
1.0511     0.07166   -0.047201
1.1063     0.15426   -0.051085
1.1493     0.24386   -0.054969
1.1791     0.33865   -0.058853
1.1951     0.43672   -0.062737
1.197     0.53607   -0.066621
1.1849     0.63468   -0.070506
1.1588     0.73057    -0.07439
1.1194     0.82178   -0.078274
1.0674     0.90648   -0.082158
1.0039     0.98293   -0.086042
0.93025      1.0496   -0.089926
0.84784      1.1051    -0.09381
0.75839      1.1484   -0.097694
0.6637      1.1785    -0.10158
0.56569      1.1949    -0.10546
0.46635      1.1972    -0.10935
0.36769      1.1853    -0.11323
0.27171      1.1596    -0.11711
0.18036      1.1205      -0.121
0.09549      1.0688    -0.12488
0.018819      1.0056    -0.12876
-0.04809     0.93218     -0.1326
-0.10385     0.84996     -0.1364
-0.14728     0.76052    -0.14021
-0.17739     0.66537    -0.14445
-0.19375     0.56596     -0.1504
-0.19745     0.46398    -0.15985
0.05147    0.069838  -0.0015018
0.10721     0.15497  -0.0072115
0.14996     0.24575   -0.011857
0.17951     0.34092   -0.016048
0.19527     0.43911   -0.020026
0.1969     0.53848   -0.023916
0.18438     0.63706    -0.02779
0.15799     0.73285   -0.031667
0.11825     0.82393   -0.035549
0.06599     0.90844   -0.039433
0.0022552     0.98467   -0.043317
-0.07166      1.0511   -0.047201
-0.15426      1.1063   -0.051085
-0.24386      1.1493   -0.054969
-0.33865      1.1791   -0.058853
-0.43672      1.1951   -0.062737
-0.53607       1.197   -0.066621
-0.63468      1.1849   -0.070506
-0.73057      1.1588    -0.07439
-0.82178      1.1194   -0.078274
-0.90648      1.0674   -0.082158
-0.98293      1.0039   -0.086042
-1.0496     0.93025   -0.089926
-1.1051     0.84784    -0.09381
-1.1484     0.75839   -0.097694
-1.1785      0.6637    -0.10158
-1.1949     0.56569    -0.10546
-1.1972     0.46635    -0.10935
-1.1853     0.36769    -0.11323
-1.1596     0.27171    -0.11711
-1.1205     0.18036      -0.121
-1.0688     0.09549    -0.12488
-1.0056    0.018819    -0.12876
-0.93218    -0.04809     -0.1326
-0.84996    -0.10385     -0.1364
-0.76052    -0.14728    -0.14021
-0.66537    -0.17739    -0.14445
-0.56596    -0.19375     -0.1504
-0.46398    -0.19745    -0.15985
-0.069838     0.05147  -0.0015018
-0.15497     0.10721  -0.0072115
-0.24575     0.14996   -0.011857
-0.34092     0.17951   -0.016048
-0.43911     0.19527   -0.020026
-0.53848      0.1969   -0.023916
-0.63706     0.18438    -0.02779
-0.73285     0.15799   -0.031667
-0.82393     0.11825   -0.035549
-0.90844     0.06599   -0.039433
-0.98467   0.0022552   -0.043317
-1.0511    -0.07166   -0.047201
-1.1063    -0.15426   -0.051085
-1.1493    -0.24386   -0.054969
-1.1791    -0.33865   -0.058853
-1.1951    -0.43672   -0.062737
-1.197    -0.53607   -0.066621
-1.1849    -0.63468   -0.070506
-1.1588    -0.73057    -0.07439
-1.1194    -0.82178   -0.078274
-1.0674    -0.90648   -0.082158
-1.0039    -0.98293   -0.086042
-0.93025     -1.0496   -0.089926
-0.84784     -1.1051    -0.09381
-0.75839     -1.1484   -0.097694
-0.6637     -1.1785    -0.10158
-0.56569     -1.1949    -0.10546
-0.46635     -1.1972    -0.10935
-0.36769     -1.1853    -0.11323
-0.27171     -1.1596    -0.11711
-0.18036     -1.1205      -0.121
-0.09549     -1.0688    -0.12488
-0.018819     -1.0056    -0.12876
0.04809    -0.93218     -0.1326
0.10385    -0.84996     -0.1364
0.14728    -0.76052    -0.14021
0.17739    -0.66537    -0.14445
0.19375    -0.56596     -0.1504
0.19745    -0.46398    -0.15985
-0.05147   -0.069838  -0.0015018
-0.10721    -0.15497  -0.0072115
-0.14996    -0.24575   -0.011857
-0.17951    -0.34092   -0.016048
-0.19527    -0.43911   -0.020026
-0.1969    -0.53848   -0.023916
-0.18438    -0.63706    -0.02779
-0.15799    -0.73285   -0.031667
-0.11825    -0.82393   -0.035549
-0.06599    -0.90844   -0.039433
-0.0022552    -0.98467   -0.043317
0.07166     -1.0511   -0.047201
0.15426     -1.1063   -0.051085
0.24386     -1.1493   -0.054969
0.33865     -1.1791   -0.058853
0.43672     -1.1951   -0.062737
0.53607      -1.197   -0.066621
0.63468     -1.1849   -0.070506
0.73057     -1.1588    -0.07439
0.82178     -1.1194   -0.078274
0.90648     -1.0674   -0.082158
0.98293     -1.0039   -0.086042
1.0496    -0.93025   -0.089926
1.1051    -0.84784    -0.09381
1.1484    -0.75839   -0.097694
1.1785     -0.6637    -0.10158
1.1949    -0.56569    -0.10546
1.1972    -0.46635    -0.10935
1.1853    -0.36769    -0.11323
1.1596    -0.27171    -0.11711
1.1205    -0.18036      -0.121
1.0688    -0.09549    -0.12488
1.0056   -0.018819    -0.12876
0.93218     0.04809     -0.1326
0.84996     0.10385     -0.1364
0.76052     0.14728    -0.14021
0.66537     0.17739    -0.14445
0.56596     0.19375     -0.1504
0.46398     0.19745    -0.15985
0  0  0
0  0  0
0  0  0
0  0  0
0  0  0
0  0  0
0  0  0
0  0  0
0  0  0
0.067832   -0.022702   -0.020741
0.14251   -0.041169   -0.028938
0.22084   -0.050877   -0.033509
0.2996   -0.049423   -0.037504
0.3772   -0.036854   -0.041382
0.45216   -0.013374   -0.045252
0.52302    0.020528   -0.049128
0.58834    0.064154    -0.05301
0.6468     0.11662   -0.056893
0.69722     0.17685   -0.060778
0.73857     0.24363   -0.064662
0.77003     0.31561   -0.068546
0.79094     0.39132    -0.07243
0.80089     0.46924   -0.076314
0.79968     0.54778   -0.080198
0.78733     0.62535   -0.084082
0.76408     0.70038   -0.087966
0.73042     0.77135    -0.09185
0.68701     0.83682   -0.095734
0.63476     0.89547   -0.099618
0.5747      0.9461     -0.1035
0.50806     0.98768    -0.10739
0.43619      1.0194    -0.11127
0.36055      1.0406    -0.11515
0.28267      1.0508    -0.11904
0.20413      1.0498    -0.12292
0.12651      1.0378    -0.12681
0.051399      1.0148    -0.13069
-0.019688     0.98135    -0.13457
-0.085308     0.93818    -0.13846
-0.14413     0.88612    -0.14234
-0.19497     0.82625    -0.14623
-0.23679     0.75976    -0.15011
-0.26875     0.68802    -0.15397
-0.29017     0.61246    -0.15782
-0.30048     0.53452     -0.1617
-0.29918     0.45558    -0.16584
-0.28598     0.37695    -0.17087
-0.26223     0.30047    -0.17766
0.067524   0.0080853  -0.0031548
0.13221    0.023193  -0.0075692
0.19831    0.046952   -0.012139
0.26084    0.079682   -0.016173
0.31799     0.12097   -0.020043
0.36863     0.16996   -0.023906
0.41176     0.22564   -0.027782
0.44655     0.28689   -0.031665
0.47228     0.35246   -0.035549
0.48845     0.42102   -0.039433
0.49471     0.49119   -0.043317
0.49095     0.56153   -0.047201
0.47724     0.63062   -0.051085
0.45385     0.69707   -0.054969
0.42127     0.75952   -0.058853
0.38015     0.81671   -0.062737
0.33132     0.86748   -0.066621
0.27578     0.91081   -0.070506
0.21465     0.94581    -0.07439
0.14917     0.97177   -0.078274
0.080666     0.98817   -0.082158
0.010527     0.99468   -0.086042
-0.059826     0.99116   -0.089926
-0.12897     0.97769    -0.09381
-0.19549     0.95453   -0.097694
-0.25806     0.92217    -0.10158
-0.31539     0.88124    -0.10546
-0.36633     0.83259    -0.10935
-0.40985      0.7772    -0.11323
-0.44506     0.71619    -0.11711
-0.47125      0.6508      -0.121
-0.48789     0.58236    -0.12488
-0.49465     0.51225    -0.12877
-0.49139     0.44189    -0.13265
-0.47815     0.37273     -0.1365
-0.45509     0.30614    -0.14026
-0.4224     0.24347     -0.1439
-0.38028     0.18589     -0.1478
-0.33007     0.13383    -0.15362
0.060373    0.041671    0.013186
0.12025    0.090658    0.013453
0.17441     0.14774   0.0094114
0.22028     0.21168   0.0052938
0.25657     0.28143   0.0013338
0.28251     0.35559  -0.0025599
0.29763     0.43268  -0.0064406
0.30164     0.51112   -0.010322
0.29447     0.58934   -0.014205
0.27627     0.66575   -0.018089
0.2474      0.7388   -0.021973
0.20845     0.80702   -0.025857
0.1602     0.86901   -0.029741
0.10364     0.92352   -0.033625
0.03992     0.96944   -0.037509
-0.02968      1.0059   -0.041393
-0.10375       1.032   -0.045277
-0.18078      1.0474   -0.049161
-0.25921      1.0517   -0.053045
-0.33746      1.0448   -0.056929
-0.41393      1.0268   -0.060813
-0.48708     0.99822   -0.064697
-0.55543     0.95951   -0.068581
-0.61758     0.91148   -0.072465
-0.67229     0.85511   -0.076349
-0.71844     0.79154   -0.080233
-0.75509     0.72207   -0.084117
-0.78151     0.64809   -0.088001
-0.79715     0.57112   -0.091885
-0.8017      0.4927    -0.09577
-0.79508     0.41443   -0.099654
-0.77741     0.33789    -0.10354
-0.74905     0.26465    -0.10742
-0.71058     0.19617    -0.11129
-0.66277     0.13389    -0.11513
-0.60649    0.079112    -0.11892
-0.54268    0.033005    -0.12274
-0.47225  -0.0036702    -0.12708
-0.39596    -0.03152    -0.13371
0.022702    0.067832   -0.020741
0.041169     0.14251   -0.028938
0.050877     0.22084   -0.033509
0.049423      0.2996   -0.037504
0.036854      0.3772   -0.041382
0.013374     0.45216   -0.045252
-0.020528     0.52302   -0.049128
-0.064154     0.58834    -0.05301
-0.11662      0.6468   -0.056893
-0.17685     0.69722   -0.060778
-0.24363     0.73857   -0.064662
-0.31561     0.77003   -0.068546
-0.39132     0.79094    -0.07243
-0.46924     0.80089   -0.076314
-0.54778     0.79968   -0.080198
-0.62535     0.78733   -0.084082
-0.70038     0.76408   -0.087966
-0.77135     0.73042    -0.09185
-0.83682     0.68701   -0.095734
-0.89547     0.63476   -0.099618
-0.9461      0.5747     -0.1035
-0.98768     0.50806    -0.10739
-1.0194     0.43619    -0.11127
-1.0406     0.36055    -0.11515
-1.0508     0.28267    -0.11904
-1.0498     0.20413    -0.12292
-1.0378     0.12651    -0.12681
-1.0148    0.051399    -0.13069
-0.98135   -0.019688    -0.13457
-0.93818   -0.085308    -0.13846
-0.88612    -0.14413    -0.14234
-0.82625    -0.19497    -0.14623
-0.75976    -0.23679    -0.15011
-0.68802    -0.26875    -0.15397
-0.61246    -0.29017    -0.15782
-0.53452    -0.30048     -0.1617
-0.45558    -0.29918    -0.16584
-0.37695    -0.28598    -0.17087
-0.30047    -0.26223    -0.17766
-0.0080853    0.067524  -0.0031548
-0.023193     0.13221  -0.0075692
-0.046952     0.19831   -0.012139
-0.079682     0.26084   -0.016173
-0.12097     0.31799   -0.020043
-0.16996     0.36863   -0.023906
-0.22564     0.41176   -0.027782
-0.28689     0.44655   -0.031665
-0.35246     0.47228   -0.035549
-0.42102     0.48845   -0.039433
-0.49119     0.49471   -0.043317
-0.56153     0.49095   -0.047201
-0.63062     0.47724   -0.051085
-0.69707     0.45385   -0.054969
-0.75952     0.42127   -0.058853
-0.81671     0.38015   -0.062737
-0.86748     0.33132   -0.066621
-0.91081     0.27578   -0.070506
-0.94581     0.21465    -0.07439
-0.97177     0.14917   -0.078274
-0.98817    0.080666   -0.082158
-0.99468    0.010527   -0.086042
-0.99116   -0.059826   -0.089926
-0.97769    -0.12897    -0.09381
-0.95453    -0.19549   -0.097694
-0.92217    -0.25806    -0.10158
-0.88124    -0.31539    -0.10546
-0.83259    -0.36633    -0.10935
-0.7772    -0.40985    -0.11323
-0.71619    -0.44506    -0.11711
-0.6508    -0.47125      -0.121
-0.58236    -0.48789    -0.12488
-0.51225    -0.49465    -0.12877
-0.44189    -0.49139    -0.13265
-0.37273    -0.47815     -0.1365
-0.30614    -0.45509    -0.14026
-0.24347     -0.4224     -0.1439
-0.18589    -0.38028     -0.1478
-0.13383    -0.33007    -0.15362
-0.041671    0.060373    0.013186
-0.090658     0.12025    0.013453
-0.14774     0.17441   0.0094114
-0.21168     0.22028   0.0052938
-0.28143     0.25657   0.0013338
-0.35559     0.28251  -0.0025599
-0.43268     0.29763  -0.0064406
-0.51112     0.30164   -0.010322
-0.58934     0.29447   -0.014205
-0.66575     0.27627   -0.018089
-0.7388      0.2474   -0.021973
-0.80702     0.20845   -0.025857
-0.86901      0.1602   -0.029741
-0.92352     0.10364   -0.033625
-0.96944     0.03992   -0.037509
-1.0059    -0.02968   -0.041393
-1.032    -0.10375   -0.045277
-1.0474    -0.18078   -0.049161
-1.0517    -0.25921   -0.053045
-1.0448    -0.33746   -0.056929
-1.0268    -0.41393   -0.060813
-0.99822    -0.48708   -0.064697
-0.95951    -0.55543   -0.068581
-0.91148    -0.61758   -0.072465
-0.85511    -0.67229   -0.076349
-0.79154    -0.71844   -0.080233
-0.72207    -0.75509   -0.084117
-0.64809    -0.78151   -0.088001
-0.57112    -0.79715   -0.091885
-0.4927     -0.8017    -0.09577
-0.41443    -0.79508   -0.099654
-0.33789    -0.77741    -0.10354
-0.26465    -0.74905    -0.10742
-0.19617    -0.71058    -0.11129
-0.13389    -0.66277    -0.11513
-0.079112    -0.60649    -0.11892
-0.033005    -0.54268    -0.12274
0.0036702    -0.47225    -0.12708
0.03152    -0.39596    -0.13371
-0.067832    0.022702   -0.020741
-0.14251    0.041169   -0.028938
-0.22084    0.050877   -0.033509
-0.2996    0.049423   -0.037504
-0.3772    0.036854   -0.041382
-0.45216    0.013374   -0.045252
-0.52302   -0.020528   -0.049128
-0.58834   -0.064154    -0.05301
-0.6468    -0.11662   -0.056893
-0.69722    -0.17685   -0.060778
-0.73857    -0.24363   -0.064662
-0.77003    -0.31561   -0.068546
-0.79094    -0.39132    -0.07243
-0.80089    -0.46924   -0.076314
-0.79968    -0.54778   -0.080198
-0.78733    -0.62535   -0.084082
-0.76408    -0.70038   -0.087966
-0.73042    -0.77135    -0.09185
-0.68701    -0.83682   -0.095734
-0.63476    -0.89547   -0.099618
-0.5747     -0.9461     -0.1035
-0.50806    -0.98768    -0.10739
-0.43619     -1.0194    -0.11127
-0.36055     -1.0406    -0.11515
-0.28267     -1.0508    -0.11904
-0.20413     -1.0498    -0.12292
-0.12651     -1.0378    -0.12681
-0.051399     -1.0148    -0.13069
0.019688    -0.98135    -0.13457
0.085308    -0.93818    -0.13846
0.14413    -0.88612    -0.14234
0.19497    -0.82625    -0.14623
0.23679    -0.75976    -0.15011
0.26875    -0.68802    -0.15397
0.29017    -0.61246    -0.15782
0.30048    -0.53452     -0.1617
0.29918    -0.45558    -0.16584
0.28598    -0.37695    -0.17087
0.26223    -0.30047    -0.17766
-0.067524  -0.0080853  -0.0031548
-0.13221   -0.023193  -0.0075692
-0.19831   -0.046952   -0.012139
-0.26084   -0.079682   -0.016173
-0.31799    -0.12097   -0.020043
-0.36863    -0.16996   -0.023906
-0.41176    -0.22564   -0.027782
-0.44655    -0.28689   -0.031665
-0.47228    -0.35246   -0.035549
-0.48845    -0.42102   -0.039433
-0.49471    -0.49119   -0.043317
-0.49095    -0.56153   -0.047201
-0.47724    -0.63062   -0.051085
-0.45385    -0.69707   -0.054969
-0.42127    -0.75952   -0.058853
-0.38015    -0.81671   -0.062737
-0.33132    -0.86748   -0.066621
-0.27578    -0.91081   -0.070506
-0.21465    -0.94581    -0.07439
-0.14917    -0.97177   -0.078274
-0.080666    -0.98817   -0.082158
-0.010527    -0.99468   -0.086042
0.059826    -0.99116   -0.089926
0.12897    -0.97769    -0.09381
0.19549    -0.95453   -0.097694
0.25806    -0.92217    -0.10158
0.31539    -0.88124    -0.10546
0.36633    -0.83259    -0.10935
0.40985     -0.7772    -0.11323
0.44506    -0.71619    -0.11711
0.47125     -0.6508      -0.121
0.48789    -0.58236    -0.12488
0.49465    -0.51225    -0.12877
0.49139    -0.44189    -0.13265
0.47815    -0.37273     -0.1365
0.45509    -0.30614    -0.14026
0.4224    -0.24347     -0.1439
0.38028    -0.18589     -0.1478
0.33007    -0.13383    -0.15362
-0.060373   -0.041671    0.013186
-0.12025   -0.090658    0.013453
-0.17441    -0.14774   0.0094114
-0.22028    -0.21168   0.0052938
-0.25657    -0.28143   0.0013338
-0.28251    -0.35559  -0.0025599
-0.29763    -0.43268  -0.0064406
-0.30164    -0.51112   -0.010322
-0.29447    -0.58934   -0.014205
-0.27627    -0.66575   -0.018089
-0.2474     -0.7388   -0.021973
-0.20845    -0.80702   -0.025857
-0.1602    -0.86901   -0.029741
-0.10364    -0.92352   -0.033625
-0.03992    -0.96944   -0.037509
0.02968     -1.0059   -0.041393
0.10375      -1.032   -0.045277
0.18078     -1.0474   -0.049161
0.25921     -1.0517   -0.053045
0.33746     -1.0448   -0.056929
0.41393     -1.0268   -0.060813
0.48708    -0.99822   -0.064697
0.55543    -0.95951   -0.068581
0.61758    -0.91148   -0.072465
0.67229    -0.85511   -0.076349
0.71844    -0.79154   -0.080233
0.75509    -0.72207   -0.084117
0.78151    -0.64809   -0.088001
0.79715    -0.57112   -0.091885
0.8017     -0.4927    -0.09577
0.79508    -0.41443   -0.099654
0.77741    -0.33789    -0.10354
0.74905    -0.26465    -0.10742
0.71058    -0.19617    -0.11129
0.66277    -0.13389    -0.11513
0.60649   -0.079112    -0.11892
0.54268   -0.033005    -0.12274
0.47225   0.0036702    -0.12708
0.39596     0.03152    -0.13371
-0.022702   -0.067832   -0.020741
-0.041169    -0.14251   -0.028938
-0.050877    -0.22084   -0.033509
-0.049423     -0.2996   -0.037504
-0.036854     -0.3772   -0.041382
-0.013374    -0.45216   -0.045252
0.020528    -0.52302   -0.049128
0.064154    -0.58834    -0.05301
0.11662     -0.6468   -0.056893
0.17685    -0.69722   -0.060778
0.24363    -0.73857   -0.064662
0.31561    -0.77003   -0.068546
0.39132    -0.79094    -0.07243
0.46924    -0.80089   -0.076314
0.54778    -0.79968   -0.080198
0.62535    -0.78733   -0.084082
0.70038    -0.76408   -0.087966
0.77135    -0.73042    -0.09185
0.83682    -0.68701   -0.095734
0.89547    -0.63476   -0.099618
0.9461     -0.5747     -0.1035
0.98768    -0.50806    -0.10739
1.0194    -0.43619    -0.11127
1.0406    -0.36055    -0.11515
1.0508    -0.28267    -0.11904
1.0498    -0.20413    -0.12292
1.0378    -0.12651    -0.12681
1.0148   -0.051399    -0.13069
0.98135    0.019688    -0.13457
0.93818    0.085308    -0.13846
0.88612     0.14413    -0.14234
0.82625     0.19497    -0.14623
0.75976     0.23679    -0.15011
0.68802     0.26875    -0.15397
0.61246     0.29017    -0.15782
0.53452     0.30048     -0.1617
0.45558     0.29918    -0.16584
0.37695     0.28598    -0.17087
0.30047     0.26223    -0.17766
0.0080853   -0.067524  -0.0031548
0.023193    -0.13221  -0.0075692
0.046952    -0.19831   -0.012139
0.079682    -0.26084   -0.016173
0.12097    -0.31799   -0.020043
0.16996    -0.36863   -0.023906
0.22564    -0.41176   -0.027782
0.28689    -0.44655   -0.031665
0.35246    -0.47228   -0.035549
0.42102    -0.48845   -0.039433
0.49119    -0.49471   -0.043317
0.56153    -0.49095   -0.047201
0.63062    -0.47724   -0.051085
0.69707    -0.45385   -0.054969
0.75952    -0.42127   -0.058853
0.81671    -0.38015   -0.062737
0.86748    -0.33132   -0.066621
0.91081    -0.27578   -0.070506
0.94581    -0.21465    -0.07439
0.97177    -0.14917   -0.078274
0.98817   -0.080666   -0.082158
0.99468   -0.010527   -0.086042
0.99116    0.059826   -0.089926
0.97769     0.12897    -0.09381
0.95453     0.19549   -0.097694
0.92217     0.25806    -0.10158
0.88124     0.31539    -0.10546
0.83259     0.36633    -0.10935
0.7772     0.40985    -0.11323
0.71619     0.44506    -0.11711
0.6508     0.47125      -0.121
0.58236     0.48789    -0.12488
0.51225     0.49465    -0.12877
0.44189     0.49139    -0.13265
0.37273     0.47815     -0.1365
0.30614     0.45509    -0.14026
0.24347      0.4224     -0.1439
0.18589     0.38028     -0.1478
0.13383     0.33007    -0.15362
0.041671   -0.060373    0.013186
0.090658    -0.12025    0.013453
0.14774    -0.17441   0.0094114
0.21168    -0.22028   0.0052938
0.28143    -0.25657   0.0013338
0.35559    -0.28251  -0.0025599
0.43268    -0.29763  -0.0064406